
                                 *****************
                                 * O   R   C   A *
                                 *****************

           --- An Ab Initio, DFT and Semiempirical electronic structure package ---

                  #######################################################
                  #                        -***-                        #
                  #          Department of theory and spectroscopy      #
                  #               Directorship: Frank Neese             #
                  #        Max Planck Institute fuer Kohlenforschung    #
                  #                Kaiser Wilhelm Platz 1               #
                  #                 D-45470 Muelheim/Ruhr               #
                  #                      Germany                        #
                  #                                                     #
                  #                  All rights reserved                #
                  #                        -***-                        #
                  #######################################################


                         Program Version 4.2.1 -  RELEASE  -


 With contributions from (in alphabetic order):
   Daniel Aravena         : Magnetic Suceptibility
   Michael Atanasov       : Ab Initio Ligand Field Theory (pilot matlab implementation)
   Alexander A. Auer      : GIAO ZORA, VPT2
   Ute Becker             : Parallelization
   Giovanni Bistoni       : ED, misc. LED, open-shell LED, HFLD
   Martin Brehm           : Molecular dynamics
   Dmytro Bykov           : SCF Hessian
   Vijay G. Chilkuri      : MRCI spin determinant printing, contributions to CSF-ICE
   Dipayan Datta          : RHF DLPNO-CCSD density
   Achintya Kumar Dutta   : EOM-CC, STEOM-CC
   Dmitry Ganyushin       : Spin-Orbit,Spin-Spin,Magnetic field MRCI
   Miquel Garcia          : C-PCM Hessian, Gaussian charge scheme
   Yang Guo               : DLPNO-NEVPT2, CIM, IAO-localization
   Andreas Hansen         : Spin unrestricted coupled pair/coupled cluster methods
   Benjamin Helmich-Paris : CASSCF linear response (MC-RPA)
   Lee Huntington         : MR-EOM, pCC
   Robert Izsak           : Overlap fitted RIJCOSX, COSX-SCS-MP3, EOM
   Christian Kollmar      : KDIIS, OOCD, Brueckner-CCSD(T), CCSD density
   Simone Kossmann        : Meta GGA functionals, TD-DFT gradient, OOMP2, MP2 Hessian
   Martin Krupicka        : AUTO-CI
   Lucas Lang             : DCDCAS
   Dagmar Lenk            : GEPOL surface, SMD
   Dimitrios Liakos       : Extrapolation schemes; Compound Job, initial MDCI parallelization
   Dimitrios Manganas     : Further ROCIS development; embedding schemes
   Dimitrios Pantazis     : SARC Basis sets
   Taras Petrenko         : DFT Hessian,TD-DFT gradient, ASA, ECA, R-Raman, ABS, FL, XAS/XES, NRVS
   Peter Pinski           : DLPNO-MP2, DLPNO-MP2 Gradient
   Christoph Reimann      : Effective Core Potentials
   Marius Retegan         : Local ZFS, SOC
   Christoph Riplinger    : Optimizer, TS searches, QM/MM, DLPNO-CCSD(T), (RO)-DLPNO pert. Triples
   Tobias Risthaus        : Range-separated hybrids, TD-DFT gradient, RPA, STAB
   Michael Roemelt        : Original ROCIS implementation
   Masaaki Saitow         : Open-shell DLPNO-CCSD energy and density
   Barbara Sandhoefer     : DKH picture change effects
   Avijit Sen             : IP-ROCIS
   Kantharuban Sivalingam : CASSCF convergence, NEVPT2, FIC-MRCI
   Bernardo de Souza      : ESD, SOC TD-DFT
   Georgi Stoychev        : AutoAux, RI-MP2 NMR
   Willem Van den Heuvel  : Paramagnetic NMR
   Boris Wezisla          : Elementary symmetry handling
   Frank Wennmohs         : Technical directorship


 We gratefully acknowledge several colleagues who have allowed us to
 interface, adapt or use parts of their codes:
   Stefan Grimme, W. Hujo, H. Kruse,             : VdW corrections, initial TS optimization,
                  C. Bannwarth                     DFT functionals, gCP, sTDA/sTD-DF
   Ed Valeev, F. Pavosevic, A. Kumar             : LibInt (2-el integral package), F12 methods
   Garnet Chan, S. Sharma, J. Yang, R. Olivares  : DMRG
   Ulf Ekstrom                                   : XCFun DFT Library
   Mihaly Kallay                                 : mrcc  (arbitrary order and MRCC methods)
   Andreas Klamt, Michael Diedenhofen            : otool_cosmo (COSMO solvation model)
   Jiri Pittner, Ondrej Demel                    : Mk-CCSD
   Frank Weinhold                                : gennbo (NPA and NBO analysis)
   Christopher J. Cramer and Donald G. Truhlar   : smd solvation model
   Lars Goerigk                                  : TD-DFT with DH, B97 family of functionals
   V. Asgeirsson, H. Jonsson                     : NEB implementation
   FAccTs GmbH                                   : IRC, NEB, NEB-TS, Multilevel, MM, QM/MM, CI optimization
   S Lehtola, MJT Oliveira, MAL Marques          : LibXC Library


 Your calculation uses the libint2 library for the computation of 2-el integrals
 For citations please refer to: http://libint.valeyev.net

 Your ORCA version has been built with support for libXC version: 4.2.3
 For citations please refer to: https://tddft.org/programs/libxc/

 This ORCA versions uses:
   CBLAS   interface :  Fast vector & matrix operations
   LAPACKE interface :  Fast linear algebra routines


----- Orbital basis set information -----
Your calculation utilizes the basis: def2-SVP
   F. Weigend and R. Ahlrichs, Phys. Chem. Chem. Phys. 7, 3297 (2005).

================================================================================
                                        WARNINGS
                       Please study these warnings very carefully!
================================================================================


INFO   : the flag for use of LIBINT has been found!

================================================================================
                                       INPUT FILE
================================================================================
NAME = Orca3.inp
|  1> # avogadro generated ORCA input file 
|  2> # Advanced Mode
|  3> # 
|  4> ! RHF SP def2-SVP NormalPrint NormalSCF pal4 
|  5> %scf
|  6> 	MaxIter 125
|  7> 	CNVDIIS 1
|  8> 	CNVSOSCF 1 
|  9> end
| 10> 
| 11> * xyz 0 1
| 12>    C       -6.15364        3.58684        0.00000
| 13>    C       -2.21209        3.47374       -0.00000
| 14>    H       -6.50367        3.82334        0.98308
| 15>    H       -6.53783        2.63291       -0.29550
| 16>    H       -6.48899        4.33495       -0.68758
| 17>    H       -1.87675        2.72562        0.68758
| 18>    H       -1.82791        4.42767        0.29550
| 19>    H       -1.86206        3.23724       -0.98308
| 20> *
| 21> 
| 22> 
| 23>                          ****END OF INPUT****
================================================================================

                       ****************************
                       * Single Point Calculation *
                       ****************************

---------------------------------
CARTESIAN COORDINATES (ANGSTROEM)
---------------------------------
  C     -6.153640    3.586840    0.000000
  C     -2.212090    3.473740   -0.000000
  H     -6.503670    3.823340    0.983080
  H     -6.537830    2.632910   -0.295500
  H     -6.488990    4.334950   -0.687580
  H     -1.876750    2.725620    0.687580
  H     -1.827910    4.427670    0.295500
  H     -1.862060    3.237240   -0.983080

----------------------------
CARTESIAN COORDINATES (A.U.)
----------------------------
  NO LB      ZA    FRAG     MASS         X           Y           Z
   0 C     6.0000    0    12.011  -11.628694    6.778145    0.000000
   1 C     6.0000    0    12.011   -4.180244    6.564417   -0.000000
   2 H     1.0000    0     1.008  -12.290155    7.225066    1.857752
   3 H     1.0000    0     1.008  -12.354708    4.975479   -0.558414
   4 H     1.0000    0     1.008  -12.262414    8.191868   -1.299338
   5 H     1.0000    0     1.008   -3.546544    5.150675    1.299338
   6 H     1.0000    0     1.008   -3.454249    8.367084    0.558414
   7 H     1.0000    0     1.008   -3.518783    6.117497   -1.857752

--------------------------------
INTERNAL COORDINATES (ANGSTROEM)
--------------------------------
 C      0   0   0     0.000000000000     0.00000000     0.00000000
 C      1   0   0     3.943172328532     0.00000000     0.00000000
 H      1   2   0     1.069999783785   109.47137980     0.00000000
 H      1   2   3     1.070002173362   109.47141687   240.00026812
 H      1   2   3     1.069997407006   109.47144117   120.00044312
 H      2   1   3     1.070001264672   109.47081671    59.99995493
 H      2   1   3     1.069998582850   109.47091713   299.99973665
 H      2   1   3     1.069999783785   109.47137980   180.00000000

---------------------------
INTERNAL COORDINATES (A.U.)
---------------------------
 C      0   0   0     0.000000000000     0.00000000     0.00000000
 C      1   0   0     7.451515799782     0.00000000     0.00000000
 H      1   2   0     2.022006554709   109.47137980     0.00000000
 H      1   2   3     2.022011070355   109.47141687   240.00026812
 H      1   2   3     2.022002063248   109.47144117   120.00044312
 H      2   1   3     2.022009353180   109.47081671    59.99995493
 H      2   1   3     2.022004285269   109.47091713   299.99973665
 H      2   1   3     2.022006554709   109.47137980   180.00000000

---------------------
BASIS SET INFORMATION
---------------------
There are 2 groups of distinct atoms

 Group   1 Type C   : 7s4p1d contracted to 3s2p1d pattern {511/31/1}
 Group   2 Type H   : 4s1p contracted to 2s1p pattern {31/1}

Atom   0C    basis set group =>   1
Atom   1C    basis set group =>   1
Atom   2H    basis set group =>   2
Atom   3H    basis set group =>   2
Atom   4H    basis set group =>   2
Atom   5H    basis set group =>   2
Atom   6H    basis set group =>   2
Atom   7H    basis set group =>   2


           ************************************************************
           *        Program running with 4 parallel MPI-processes     *
           *              working on a common directory               *
           ************************************************************
------------------------------------------------------------------------------
                           ORCA GTO INTEGRAL CALCULATION
------------------------------------------------------------------------------

                         BASIS SET STATISTICS AND STARTUP INFO

 # of primitive gaussian shells          ...   54
 # of primitive gaussian functions       ...   90
 # of contracted shells                  ...   30
 # of contracted basis functions         ...   58
 Highest angular momentum                ...    2
 Maximum contraction depth               ...    5
 Integral package used                   ... LIBINT
 Integral threshhold            Thresh   ...  1.000e-10
 Primitive cut-off              TCut     ...  1.000e-11


------------------------------ INTEGRAL EVALUATION ----------------------------


 * One electron integrals 
 Pre-screening matrix                    ... done
 Shell pair data                         ... done (   0.001 sec)

Timings:
 Total evaluation time               ...     0.033 sec (   0.001 min)
 One electron matrix time            ...     0.050 sec (   0.001 min) =151.5%
 Schwartz matrix evaluation time     ...     0.201 sec (   0.003 min) =609.1%



           ************************************************************
           *        Program running with 4 parallel MPI-processes     *
           *              working on a common directory               *
           ************************************************************
-------------------------------------------------------------------------------
                                 ORCA SCF
-------------------------------------------------------------------------------

------------
SCF SETTINGS
------------
Hamiltonian:
 Ab initio Hamiltonian  Method          .... Hartree-Fock(GTOs)


General Settings:
 Integral files         IntName         .... Orca3
 Hartree-Fock type      HFTyp           .... RHF
 Total Charge           Charge          ....    0
 Multiplicity           Mult            ....    1
 Number of Electrons    NEL             ....   18
 Basis Dimension        Dim             ....   58
 Nuclear Repulsion      ENuc            ....     29.7450360740 Eh

Convergence Acceleration:
 DIIS                   CNVDIIS         .... on
   Start iteration      DIISMaxIt       ....    12
   Startup error        DIISStart       ....  0.200000
   # of expansion vecs  DIISMaxEq       ....     5
   Bias factor          DIISBfac        ....   1.050
   Max. coefficient     DIISMaxC        ....  10.000
 Newton-Raphson         CNVNR           .... off
 SOSCF                  CNVSOSCF        .... on
   Start iteration      SOSCFMaxIt      ....   150
   Startup grad/error   SOSCFStart      ....  0.003300
 Level Shifting         CNVShift        .... on
   Level shift para.    LevelShift      ....    0.2500
   Turn off err/grad.   ShiftErr        ....    0.0010
 Zerner damping         CNVZerner       .... off
 Static damping         CNVDamp         .... on
   Fraction old density DampFac         ....    0.7000
   Max. Damping (<1)    DampMax         ....    0.9800
   Min. Damping (>=0)   DampMin         ....    0.0000
   Turn off err/grad.   DampErr         ....    0.1000
 Fernandez-Rico         CNVRico         .... off

SCF Procedure:
 Maximum # iterations   MaxIter         ....   125
 SCF integral mode      SCFMode         .... Direct
   Integral package                     .... LIBINT
 Reset frequency        DirectResetFreq ....    20
 Integral Threshold     Thresh          ....  1.000e-10 Eh
 Primitive CutOff       TCut            ....  1.000e-11 Eh

Convergence Tolerance:
 Convergence Check Mode ConvCheckMode   .... Total+1el-Energy
 Convergence forced     ConvForced      .... 0
 Energy Change          TolE            ....  1.000e-06 Eh
 1-El. energy change                    ....  1.000e-03 Eh
 Orbital Gradient       TolG            ....  5.000e-05
 Orbital Rotation angle TolX            ....  5.000e-05
 DIIS Error             TolErr          ....  1.000e-06


Diagonalization of the overlap matrix:
Smallest eigenvalue                        ... 1.696e-02
Time for diagonalization                   ...    0.002 sec
Threshold for overlap eigenvalues          ... 1.000e-08
Number of eigenvalues below threshold      ... 0
Time for construction of square roots      ...    0.008 sec
Total time needed                          ...    0.011 sec

-------------------
DFT GRID GENERATION
-------------------

General Integration Accuracy     IntAcc      ...  4.340
Radial Grid Type                 RadialGrid  ... Gauss-Chebyshev
Angular Grid (max. acc.)         AngularGrid ... Lebedev-110
Angular grid pruning method      GridPruning ... 3 (G Style)
Weight generation scheme         WeightScheme... Becke
Basis function cutoff            BFCut       ...    1.0000e-10
Integration weight cutoff        WCut        ...    1.0000e-14
Grids for H and He will be reduced by one unit

# of grid points (after initial pruning)     ...   8076 (   0.0 sec)
# of grid points (after weights+screening)   ...   7852 (   0.0 sec)
nearest neighbour list constructed           ...    0.0 sec
Grid point re-assignment to atoms done       ...    0.0 sec
Grid point division into batches done        ...    0.0 sec
Reduced shell lists constructed in    0.0 sec

Total number of grid points                  ...     7852
Total number of batches                      ...      126
Average number of points per batch           ...       62
Average number of grid points per atom       ...      982
Average number of shells per batch           ...    22.91 (76.36%)
Average number of basis functions per batch  ...    41.88 (72.20%)
Average number of large shells per batch     ...    19.39 (84.66%)
Average number of large basis fcns per batch ...    34.97 (83.50%)
Maximum spatial batch extension              ...  19.42, 21.59, 15.43 au
Average spatial batch extension              ...   1.04,  0.98,  0.89 au

Time for grid setup =    0.037 sec

------------------------------
INITIAL GUESS: MODEL POTENTIAL
------------------------------
Loading Hartree-Fock densities                     ... done
Calculating cut-offs                               ... done
Setting up the integral package                    ... done
Initializing the effective Hamiltonian             ... done
Starting the Coulomb interaction                   ... done (   0.0 sec)
Reading the grid                                   ... done
Mapping shells                                     ... done
Starting the XC term evaluation                    ... done (   0.0 sec)
Transforming the Hamiltonian                       ... done (   0.0 sec)
Diagonalizing the Hamiltonian                      ... done (   0.0 sec)
Back transforming the eigenvectors                 ... done (   0.0 sec)
Now organizing SCF variables                       ... done
                      ------------------
                      INITIAL GUESS DONE (   0.2 sec)
                      ------------------
--------------
SCF ITERATIONS
--------------
               ***  Starting incremental Fock matrix formation  ***

                         ----------------------------
                         !        ITERATION     0   !
                         ----------------------------
   Total Energy        :     -78.760942188297 Eh
   Energy Change       :     -78.760942188297 Eh
   MAX-DP              :       0.054072029300
   RMS-DP              :       0.003018913905
   Actual Damping      :       0.7000
   Actual Level Shift  :       0.2500 Eh


                         ----------------------------
                         !        ITERATION     1   !
                         ----------------------------
   Total Energy        :     -78.802265561879 Eh
   Energy Change       :      -0.041323373582 Eh
   MAX-DP              :       0.038863637313
   RMS-DP              :       0.002465888637
   Actual Damping      :       0.7000
   Actual Level Shift  :       0.2500 Eh

                               ***Turning on DIIS***

                         ----------------------------
                         !        ITERATION     2   !
                         ----------------------------
   Total Energy        :     -78.828161572950 Eh
   Energy Change       :      -0.025896011071 Eh
   MAX-DP              :       0.087036339889
   RMS-DP              :       0.005583314715
   Actual Damping      :       0.0000
   Actual Level Shift  :       0.2500 Eh
   DIIS-Error          :       0.068411123889


                         ----------------------------
                         !        ITERATION     3   !
                         ----------------------------
   Total Energy        :     -78.710397095020 Eh
   Energy Change       :       0.117764477930 Eh
   MAX-DP              :       0.027399234402
   RMS-DP              :       0.001213087238
   Actual Damping      :       0.0000
   Actual Level Shift  :       0.2500 Eh
   DIIS-Error          :       0.028754746454
   DIIS coefficients:
      0.25356   0.74644


                         ----------------------------
                         !        ITERATION     4   !
                         ----------------------------
   Total Energy        :     -78.848032710839 Eh
   Energy Change       :      -0.137635615819 Eh
   MAX-DP              :       0.005497794882
   RMS-DP              :       0.000364859719
   Actual Damping      :       0.0000
   Actual Level Shift  :       0.2500 Eh
   DIIS-Error          :       0.005675885915
   DIIS coefficients:
     -0.01429  -0.26205   1.27633

                      *** Initiating the SOSCF procedure ***
                           *** Shutting down DIIS ***
                      *** Re-Reading the Fockian *** 
                      *** Removing any level shift *** 

                         ----------------------------
                         !        ITERATION     5   !
                         ----------------------------
   Total Energy        :     -78.873291354007 Eh
   Energy Change       :      -0.025258643168 Eh
   MAX-DP              :       0.003096417580
   RMS-DP              :       0.000179684355
   Orbital gradient    :       0.001595266398
   Orbital Rotation    :       0.001595266398
   Actual Damping      :       0.0000

               *** Restarting incremental Fock matrix formation ***

                         ----------------------------
                         !        ITERATION     6   !
                         ----------------------------
   Total Energy        :     -78.880466785948 Eh
   Energy Change       :      -0.007175431941 Eh
   MAX-DP              :       0.001972925717
   RMS-DP              :       0.000107113163
   Orbital gradient    :       0.000424314024
   Orbital Rotation    :       0.000736759448
   Actual Damping      :       0.0000


                         ----------------------------
                         !        ITERATION     7   !
                         ----------------------------
   Total Energy        :     -78.880469158333 Eh
   Energy Change       :      -0.000002372386 Eh
   MAX-DP              :       0.001274325094
   RMS-DP              :       0.000067441214
   Orbital gradient    :       0.000199620991
   Orbital Rotation    :       0.000531454515
   Actual Damping      :       0.0000

                 **** Energy Check signals convergence ****
              ***Rediagonalizing the Fockian in SOSCF/NRSCF***

               *****************************************************
               *                     SUCCESS                       *
               *           SCF CONVERGED AFTER   8 CYCLES          *
               *****************************************************


----------------
TOTAL SCF ENERGY
----------------

Total Energy       :          -78.88046953 Eh           -2146.44670 eV

Components:
Nuclear Repulsion  :           29.74503607 Eh             809.40358 eV
Electronic Energy  :         -108.62550560 Eh           -2955.85028 eV
One Electron Energy:         -163.42918075 Eh           -4447.13410 eV
Two Electron Energy:           54.80367515 Eh            1491.28382 eV

Virial components:
Potential Energy   :         -157.24107814 Eh           -4278.74726 eV
Kinetic Energy     :           78.36060861 Eh            2132.30056 eV
Virial Ratio       :            2.00663421


---------------
SCF CONVERGENCE
---------------

  Last Energy change         ...   -3.6746e-07  Tolerance :   1.0000e-06
  Last MAX-Density change    ...    5.6938e-05  Tolerance :   1.0000e-05
  Last RMS-Density change    ...    3.6267e-06  Tolerance :   1.0000e-06
  Last Orbital Gradient      ...    4.6337e-05  Tolerance :   5.0000e-05
  Last Orbital Rotation      ...    4.9277e-05  Tolerance :   5.0000e-05

             **** THE GBW FILE WAS UPDATED (Orca3.gbw) ****
             **** DENSITY FILE WAS UPDATED (Orca3.scfp) ****
             **** ENERGY FILE WAS UPDATED (Orca3.en.tmp) ****
             **** THE GBW FILE WAS UPDATED (Orca3.gbw) ****
             **** DENSITY FILE WAS UPDATED (Orca3.scfp) ****
----------------
ORBITAL ENERGIES
----------------

  NO   OCC          E(Eh)            E(eV) 
   0   2.0000     -11.276088      -306.8380 
   1   2.0000     -11.276056      -306.8371 
   2   2.0000      -0.919794       -25.0289 
   3   2.0000      -0.915986       -24.9252 
   4   2.0000      -0.572388       -15.5755 
   5   2.0000      -0.572387       -15.5754 
   6   2.0000      -0.571434       -15.5495 
   7   2.0000      -0.571433       -15.5495 
   8   2.0000      -0.235640        -6.4121 
   9   0.0000      -0.038935        -1.0595 
  10   0.0000       0.196353         5.3430 
  11   0.0000       0.205476         5.5913 
  12   0.0000       0.273140         7.4325 
  13   0.0000       0.273140         7.4325 
  14   0.0000       0.273518         7.4428 
  15   0.0000       0.273518         7.4428 
  16   0.0000       0.578193        15.7334 
  17   0.0000       0.578194        15.7335 
  18   0.0000       0.618858        16.8400 
  19   0.0000       0.618860        16.8400 
  20   0.0000       0.632485        17.2108 
  21   0.0000       0.779215        21.2035 
  22   0.0000       0.781860        21.2755 
  23   0.0000       0.847176        23.0528 
  24   0.0000       0.906043        24.6547 
  25   0.0000       0.914025        24.8719 
  26   0.0000       0.922264        25.0961 
  27   0.0000       0.922265        25.0961 
  28   0.0000       0.926992        25.2247 
  29   0.0000       0.926993        25.2248 
  30   0.0000       1.400294        38.1039 
  31   0.0000       1.400296        38.1040 
  32   0.0000       1.402978        38.1770 
  33   0.0000       1.402980        38.1770 
  34   0.0000       1.808623        49.2151 
  35   0.0000       1.808636        49.2155 
  36   0.0000       1.813978        49.3609 
  37   0.0000       1.828890        49.7666 
  38   0.0000       1.936679        52.6997 
  39   0.0000       1.936681        52.6998 
  40   0.0000       1.959620        53.3240 
  41   0.0000       1.959621        53.3240 
  42   0.0000       2.276275        61.9406 
  43   0.0000       2.276278        61.9407 
  44   0.0000       2.277367        61.9703 
  45   0.0000       2.277369        61.9704 
  46   0.0000       2.477453        67.4149 
  47   0.0000       2.509582        68.2892 
  48   0.0000       2.768016        75.3215 
  49   0.0000       2.768018        75.3216 
  50   0.0000       2.771624        75.4197 
  51   0.0000       2.771625        75.4198 
  52   0.0000       3.080793        83.8326 
  53   0.0000       3.082037        83.8665 
  54   0.0000       3.279560        89.2414 
  55   0.0000       3.279562        89.2414 
  56   0.0000       3.289586        89.5142 
  57   0.0000       3.289588        89.5142 

                    ********************************
                    * MULLIKEN POPULATION ANALYSIS *
                    ********************************

-----------------------
MULLIKEN ATOMIC CHARGES
-----------------------
   0 C :   -0.187266
   1 C :   -0.187318
   2 H :    0.062428
   3 H :    0.062428
   4 H :    0.062428
   5 H :    0.062434
   6 H :    0.062433
   7 H :    0.062433
Sum of atomic charges:   -0.0000000

--------------------------------
MULLIKEN REDUCED ORBITAL CHARGES
--------------------------------
  0 C s       :     3.225291  s :     3.225291
      pz      :     1.020921  p :     2.937598
      px      :     0.895857
      py      :     1.020819
      dz2     :     0.005606  d :     0.024377
      dxz     :     0.004326
      dyz     :     0.007305
      dx2y2   :     0.002415
      dxy     :     0.004726
  1 C s       :     3.225298  s :     3.225298
      pz      :     1.020928  p :     2.937643
      px      :     0.895891
      py      :     1.020824
      dz2     :     0.005606  d :     0.024377
      dxz     :     0.004325
      dyz     :     0.007305
      dx2y2   :     0.002415
      dxy     :     0.004726
  2 H s       :     0.909861  s :     0.909861
      pz      :     0.016779  p :     0.027711
      px      :     0.005342
      py      :     0.005589
  3 H s       :     0.909862  s :     0.909862
      pz      :     0.005968  p :     0.027710
      px      :     0.005691
      py      :     0.016051
  4 H s       :     0.909862  s :     0.909862
      pz      :     0.010709  p :     0.027711
      px      :     0.005200
      py      :     0.011802
  5 H s       :     0.909855  s :     0.909855
      pz      :     0.010708  p :     0.027711
      px      :     0.005200
      py      :     0.011802
  6 H s       :     0.909856  s :     0.909856
      pz      :     0.005968  p :     0.027711
      px      :     0.005691
      py      :     0.016051
  7 H s       :     0.909856  s :     0.909856
      pz      :     0.016780  p :     0.027711
      px      :     0.005342
      py      :     0.005589

------------------------
MULLIKEN OVERLAP CHARGES
------------------------
B(  0-C ,  1-C ) :   0.1244 B(  0-C ,  2-H ) :   0.7947 B(  0-C ,  3-H ) :   0.7947 
B(  0-C ,  4-H ) :   0.7947 B(  1-C ,  5-H ) :   0.7947 B(  1-C ,  6-H ) :   0.7947 
B(  1-C ,  7-H ) :   0.7947 B(  2-H ,  3-H ) :  -0.0509 B(  2-H ,  4-H ) :  -0.0509 
B(  3-H ,  4-H ) :  -0.0509 B(  5-H ,  6-H ) :  -0.0509 B(  5-H ,  7-H ) :  -0.0509 
B(  6-H ,  7-H ) :  -0.0509 


                     *******************************
                     * LOEWDIN POPULATION ANALYSIS *
                     *******************************

----------------------
LOEWDIN ATOMIC CHARGES
----------------------
   0 C :   -0.055538
   1 C :   -0.055580
   2 H :    0.018519
   3 H :    0.018519
   4 H :    0.018518
   5 H :    0.018521
   6 H :    0.018520
   7 H :    0.018521

-------------------------------
LOEWDIN REDUCED ORBITAL CHARGES
-------------------------------
  0 C s       :     2.954131  s :     2.954131
      pz      :     1.079154  p :     3.051117
      px      :     0.892963
      py      :     1.079001
      dz2     :     0.012444  d :     0.050289
      dxz     :     0.007709
      dyz     :     0.016108
      dx2y2   :     0.005519
      dxy     :     0.008508
  1 C s       :     2.954136  s :     2.954136
      pz      :     1.079157  p :     3.051155
      px      :     0.892995
      py      :     1.079003
      dz2     :     0.012444  d :     0.050288
      dxz     :     0.007709
      dyz     :     0.016108
      dx2y2   :     0.005519
      dxy     :     0.008508
  2 H s       :     0.904944  s :     0.904944
      pz      :     0.040988  p :     0.076538
      px      :     0.020623
      py      :     0.014927
  3 H s       :     0.904944  s :     0.904944
      pz      :     0.015798  p :     0.076537
      px      :     0.021475
      py      :     0.039265
  4 H s       :     0.904944  s :     0.904944
      pz      :     0.026842  p :     0.076538
      px      :     0.020277
      py      :     0.029418
  5 H s       :     0.904940  s :     0.904940
      pz      :     0.026842  p :     0.076539
      px      :     0.020277
      py      :     0.029419
  6 H s       :     0.904941  s :     0.904941
      pz      :     0.015798  p :     0.076539
      px      :     0.021475
      py      :     0.039266
  7 H s       :     0.904941  s :     0.904941
      pz      :     0.040988  p :     0.076539
      px      :     0.020624
      py      :     0.014927

---------------------------------
LOEWDIN BOND ORDERS (THRESH 0.050000)
---------------------------------
B(  0-C ,  1-C ) :   0.8795 B(  0-C ,  2-H ) :   1.0077 B(  0-C ,  3-H ) :   1.0077 
B(  0-C ,  4-H ) :   1.0077 B(  1-C ,  5-H ) :   1.0077 B(  1-C ,  6-H ) :   1.0077 
B(  1-C ,  7-H ) :   1.0077 

------------------------------------------
LOEWDIN REDUCED ORBITAL POPULATIONS PER MO
-------------------------------------------
THRESHOLD FOR PRINTING IS 0.1%
                      0         1         2         3         4         5   
                 -11.27609 -11.27606  -0.91979  -0.91599  -0.57239  -0.57239
                   2.00000   2.00000   2.00000   2.00000   2.00000   2.00000
                  --------  --------  --------  --------  --------  --------
 0 C  s               9.4      90.1      22.6      22.2       0.0       0.0
 0 C  pz              0.0       0.0       0.0       0.0      15.6      11.0
 0 C  px              0.0       0.0       0.5       0.8       0.0       0.0
 0 C  py              0.0       0.0       0.0       0.0      11.0      15.5
 0 C  dz2             0.0       0.0       0.0       0.0       0.0       0.3
 0 C  dxz             0.0       0.0       0.0       0.0       0.1       0.1
 0 C  dyz             0.0       0.0       0.0       0.0       0.4       0.0
 0 C  dxy             0.0       0.0       0.0       0.0       0.1       0.1
 1 C  s              90.1       9.4      22.7      22.1       0.0       0.0
 1 C  pz              0.0       0.0       0.0       0.0      16.0      11.3
 1 C  px              0.0       0.0       0.6       0.8       0.0       0.0
 1 C  py              0.0       0.0       0.0       0.0      11.4      16.1
 1 C  dz2             0.0       0.0       0.0       0.0       0.0       0.3
 1 C  dxz             0.0       0.0       0.0       0.0       0.1       0.1
 1 C  dyz             0.0       0.0       0.0       0.0       0.4       0.0
 1 C  dxy             0.0       0.0       0.0       0.0       0.1       0.1
 2 H  s               0.0       0.1       8.1       8.2       5.1       9.0
 2 H  pz              0.0       0.1       0.7       0.7       0.0       0.2
 2 H  py              0.0       0.0       0.0       0.0       0.3       0.1
 3 H  s               0.0       0.1       8.1       8.2       2.1      11.9
 3 H  pz              0.0       0.0       0.1       0.1       0.3       0.0
 3 H  px              0.0       0.0       0.1       0.1       0.0       0.1
 3 H  py              0.0       0.1       0.7       0.7       0.0       0.2
 4 H  s               0.0       0.1       8.1       8.2      13.8       0.2
 4 H  pz              0.0       0.0       0.4       0.4       0.1       0.2
 4 H  px              0.0       0.0       0.1       0.0       0.1       0.0
 4 H  py              0.0       0.0       0.4       0.4       0.2       0.1
 5 H  s               0.1       0.0       8.1       8.1      14.2       0.2
 5 H  pz              0.0       0.0       0.4       0.4       0.1       0.2
 5 H  px              0.0       0.0       0.1       0.0       0.1       0.0
 5 H  py              0.0       0.0       0.4       0.4       0.2       0.1
 6 H  s               0.1       0.0       8.1       8.1       2.2      12.3
 6 H  pz              0.0       0.0       0.1       0.1       0.3       0.0
 6 H  px              0.0       0.0       0.1       0.1       0.0       0.1
 6 H  py              0.1       0.0       0.7       0.7       0.0       0.2
 7 H  s               0.1       0.0       8.1       8.1       5.2       9.2
 7 H  pz              0.1       0.0       0.7       0.7       0.0       0.2
 7 H  py              0.0       0.0       0.0       0.0       0.3       0.1

                      6         7         8         9        10        11   
                  -0.57143  -0.57143  -0.23564  -0.03894   0.19635   0.20548
                   2.00000   2.00000   2.00000   0.00000   0.00000   0.00000
                  --------  --------  --------  --------  --------  --------
 0 C  s               0.0       0.0       3.4       4.3       8.5       7.6
 0 C  pz             16.5      10.9       0.0       0.0       0.0       0.0
 0 C  px              0.0       0.0      43.2      41.9       0.4       1.4
 0 C  py             10.9      16.5       0.0       0.0       0.0       0.0
 0 C  dz2             0.0       0.3       0.0       0.0       0.0       0.1
 0 C  dxz             0.1       0.1       0.0       0.0       0.0       0.0
 0 C  dyz             0.4       0.0       0.0       0.0       0.0       0.0
 0 C  dx2y2           0.0       0.1       0.0       0.0       0.1       0.2
 0 C  dxy             0.1       0.1       0.0       0.0       0.0       0.0
 1 C  s               0.0       0.0       3.4       4.3       8.5       7.5
 1 C  pz             16.0      10.6       0.0       0.0       0.0       0.0
 1 C  px              0.0       0.0      43.2      41.9       0.4       1.4
 1 C  py             10.5      16.0       0.0       0.0       0.0       0.0
 1 C  dz2             0.0       0.3       0.0       0.0       0.0       0.1
 1 C  dxz             0.1       0.1       0.0       0.0       0.0       0.0
 1 C  dyz             0.4       0.0       0.0       0.0       0.0       0.0
 1 C  dx2y2           0.0       0.1       0.0       0.0       0.1       0.2
 1 C  dxy             0.1       0.1       0.0       0.0       0.0       0.0
 2 H  s               5.5       9.0       0.4       0.3      11.5      11.4
 2 H  pz              0.0       0.2       0.0       0.0       2.0       2.1
 2 H  px              0.0       0.1       0.7       0.9       0.0       0.0
 2 H  py              0.3       0.1       0.0       0.0       0.1       0.1
 3 H  s               2.0      12.5       0.4       0.3      11.5      11.4
 3 H  pz              0.3       0.0       0.0       0.0       0.2       0.2
 3 H  px              0.0       0.1       0.7       0.9       0.0       0.0
 3 H  py              0.0       0.2       0.0       0.0       1.9       2.0
 4 H  s              14.2       0.3       0.4       0.3      11.5      11.4
 4 H  pz              0.1       0.2       0.0       0.0       1.0       1.0
 4 H  px              0.1       0.0       0.7       0.9       0.0       0.0
 4 H  py              0.2       0.1       0.0       0.0       1.1       1.2
 5 H  s              13.8       0.3       0.4       0.3      11.5      11.4
 5 H  pz              0.1       0.2       0.0       0.0       1.0       1.0
 5 H  px              0.1       0.0       0.7       0.9       0.0       0.0
 5 H  py              0.2       0.1       0.0       0.0       1.1       1.2
 6 H  s               2.0      12.1       0.4       0.3      11.5      11.4
 6 H  pz              0.3       0.0       0.0       0.0       0.2       0.2
 6 H  px              0.0       0.1       0.7       0.9       0.0       0.0
 6 H  py              0.0       0.2       0.0       0.0       1.9       2.0
 7 H  s               5.3       8.7       0.4       0.3      11.5      11.4
 7 H  pz              0.0       0.2       0.0       0.0       2.0       2.1
 7 H  px              0.0       0.1       0.7       0.9       0.0       0.0
 7 H  py              0.3       0.1       0.0       0.0       0.1       0.1

                     12        13        14        15        16        17   
                   0.27314   0.27314   0.27352   0.27352   0.57819   0.57819
                   0.00000   0.00000   0.00000   0.00000   0.00000   0.00000
                  --------  --------  --------  --------  --------  --------
 0 C  pz              1.2       5.8       3.9       3.5      13.4      14.4
 0 C  py              5.8       1.2       3.5       3.9      14.3      13.4
 0 C  dz2             0.3       0.1       0.4       0.0       2.4       0.0
 0 C  dxz             0.1       0.3       0.2       0.2       0.9       0.8
 0 C  dyz             0.1       0.4       0.0       0.5       0.0       3.3
 0 C  dx2y2           0.1       0.0       0.1       0.0       0.7       0.0
 0 C  dxy             0.3       0.1       0.2       0.2       1.0       0.8
 1 C  pz              1.3       6.1       3.7       3.4      13.4      14.4
 1 C  py              6.0       1.3       3.4       3.7      14.4      13.4
 1 C  dz2             0.3       0.1       0.4       0.0       2.4       0.0
 1 C  dxz             0.1       0.3       0.2       0.1       0.9       0.8
 1 C  dyz             0.1       0.4       0.0       0.5       0.0       3.3
 1 C  dx2y2           0.1       0.0       0.1       0.0       0.7       0.0
 1 C  dxy             0.3       0.1       0.2       0.2       1.0       0.8
 2 H  s               8.7      14.5      17.8       6.2       6.7       2.8
 2 H  pz              1.3       1.2       2.2       0.4       0.0       0.1
 2 H  px              0.3       0.5       0.6       0.2       0.1       0.0
 2 H  py              0.2       0.7       0.0       1.0       0.5       1.2
 3 H  s              22.8       0.4      18.2       5.8       7.5       2.0
 3 H  pz              0.1       0.9       0.0       1.0       0.4       1.3
 3 H  px              0.8       0.0       0.7       0.2       0.1       0.0
 3 H  py              2.4       0.0       2.2       0.3       0.0       0.2
 4 H  s               3.3      19.9       0.0      24.0       0.0       9.5
 4 H  pz              1.1       0.6       0.5       1.2       0.9       0.0
 4 H  px              0.1       0.6       0.0       0.7       0.0       0.2
 4 H  py              0.0       1.8       0.4       1.5       0.8       0.0
 5 H  s               3.4      20.6       0.0      23.1       0.0       9.5
 5 H  pz              1.1       0.6       0.5       1.2       0.9       0.0
 5 H  px              0.1       0.6       0.0       0.7       0.0       0.2
 5 H  py              0.0       1.9       0.4       1.5       0.8       0.0
 6 H  s              23.6       0.4      17.6       5.6       7.5       2.0
 6 H  pz              0.1       0.9       0.0       1.0       0.4       1.3
 6 H  px              0.9       0.0       0.7       0.2       0.1       0.0
 6 H  py              2.4       0.0       2.1       0.3       0.0       0.2
 7 H  s               9.0      15.1      17.2       6.0       6.7       2.8
 7 H  pz              1.3       1.3       2.1       0.4       0.0       0.1
 7 H  px              0.3       0.5       0.6       0.2       0.1       0.0
 7 H  py              0.2       0.8       0.0       0.9       0.5       1.2

                     18        19        20        21        22        23   
                   0.61886   0.61886   0.63249   0.77921   0.78186   0.84718
                   0.00000   0.00000   0.00000   0.00000   0.00000   0.00000
                  --------  --------  --------  --------  --------  --------
 0 C  s               0.0       0.0      17.3      13.7      22.8      33.5
 0 C  pz             11.7      14.0       0.0       0.0       0.0       0.0
 0 C  px              0.0       0.0      31.5      23.8      15.1      15.0
 0 C  py             14.0      11.7       0.0       0.0       0.0       0.0
 0 C  dz2             2.8       0.1       0.1       0.6       0.6       0.0
 0 C  dxz             0.9       0.9       0.0       0.0       0.0       0.0
 0 C  dyz             0.1       3.9       0.0       0.0       0.0       0.0
 0 C  dx2y2           0.8       0.0       0.2       1.8       1.9       0.1
 0 C  dxy             1.1       0.8       0.0       0.0       0.0       0.0
 1 C  s               0.0       0.0      17.3      13.9      22.6      33.5
 1 C  pz             11.7      14.0       0.0       0.0       0.0       0.0
 1 C  px              0.0       0.0      31.5      24.0      14.9      15.0
 1 C  py             14.0      11.7       0.0       0.0       0.0       0.0
 1 C  dz2             2.8       0.1       0.1       0.6       0.6       0.0
 1 C  dxz             0.9       0.9       0.0       0.0       0.0       0.0
 1 C  dyz             0.1       3.9       0.0       0.0       0.0       0.0
 1 C  dx2y2           0.8       0.0       0.2       1.8       1.9       0.1
 1 C  dxy             1.1       0.8       0.0       0.0       0.0       0.0
 2 H  s               6.8       3.2       0.0       2.4       2.3       0.1
 2 H  pz              0.0       0.1       0.0       0.2       0.1       0.2
 2 H  px              0.2       0.0       0.3       0.7       0.9       0.1
 2 H  py              0.7       1.4       0.0       0.0       0.0       0.0
 3 H  s               8.2       1.8       0.0       2.4       2.3       0.1
 3 H  pz              0.4       1.7       0.0       0.0       0.0       0.0
 3 H  px              0.2       0.0       0.3       0.7       0.8       0.1
 3 H  py              0.0       0.2       0.0       0.2       0.1       0.2
 4 H  s               0.1       9.9       0.0       2.4       2.3       0.1
 4 H  pz              1.2       0.0       0.0       0.1       0.1       0.1
 4 H  px              0.0       0.2       0.3       0.7       0.9       0.1
 4 H  py              1.0       0.0       0.0       0.1       0.1       0.1
 5 H  s               0.1       9.9       0.0       2.4       2.2       0.1
 5 H  pz              1.2       0.0       0.0       0.1       0.1       0.1
 5 H  px              0.0       0.2       0.3       0.7       0.9       0.1
 5 H  py              1.0       0.0       0.0       0.1       0.1       0.1
 6 H  s               8.1       1.8       0.0       2.4       2.2       0.1
 6 H  pz              0.4       1.7       0.0       0.0       0.0       0.0
 6 H  px              0.2       0.0       0.3       0.7       0.8       0.1
 6 H  py              0.0       0.2       0.0       0.2       0.1       0.2
 7 H  s               6.8       3.2       0.0       2.4       2.2       0.1
 7 H  pz              0.0       0.1       0.0       0.2       0.1       0.2
 7 H  px              0.2       0.0       0.3       0.7       0.9       0.1
 7 H  py              0.7       1.4       0.0       0.0       0.0       0.0

                     24        25        26        27        28        29   
                   0.90604   0.91403   0.92226   0.92226   0.92699   0.92699
                   0.00000   0.00000   0.00000   0.00000   0.00000   0.00000
                  --------  --------  --------  --------  --------  --------
 0 C  s               8.1       2.4       0.0       0.0       0.0       0.0
 0 C  pz              0.0       0.0       9.9      14.0       8.7      16.9
 0 C  px              3.3      10.1       0.0       0.0       0.0       0.0
 0 C  py              0.0       0.0      14.0       9.9      16.9       8.7
 0 C  dz2             0.6       0.7       1.7       0.1       1.4       0.1
 0 C  dxz             0.0       0.0       0.3       0.3       0.2       0.3
 0 C  dyz             0.0       0.0       0.1       2.3       0.1       1.9
 0 C  dx2y2           1.7       2.0       0.5       0.0       0.4       0.0
 0 C  dxy             0.0       0.0       0.4       0.2       0.4       0.2
 1 C  s               8.1       2.4       0.0       0.0       0.0       0.0
 1 C  pz              0.0       0.0       9.9      14.1       8.6      16.8
 1 C  px              3.3      10.1       0.0       0.0       0.0       0.0
 1 C  py              0.0       0.0      14.0       9.9      16.8       8.6
 1 C  dz2             0.6       0.7       1.7       0.1       1.4       0.1
 1 C  dxz             0.0       0.0       0.3       0.3       0.2       0.3
 1 C  dyz             0.0       0.0       0.1       2.3       0.1       1.8
 1 C  dx2y2           1.7       1.9       0.5       0.0       0.4       0.0
 1 C  dxy             0.0       0.0       0.4       0.2       0.4       0.2
 2 H  s               8.2       8.1       7.4       4.2       6.1       4.8
 2 H  pz              3.7       3.3       2.1       0.9       1.8       1.2
 2 H  px              0.0       0.0       0.3       0.2       0.3       0.2
 2 H  py              0.2       0.2       0.0       0.4       0.0       0.3
 3 H  s               8.2       8.1       9.8       1.8       9.8       1.1
 3 H  pz              0.3       0.3       0.1       0.4       0.1       0.2
 3 H  px              0.0       0.0       0.5       0.1       0.5       0.1
 3 H  py              3.5       3.2       2.5       0.3       2.7       0.2
 4 H  s               8.2       8.1       0.2      11.4       0.4      10.5
 4 H  pz              1.8       1.6       0.3       1.3       0.3       1.3
 4 H  px              0.0       0.0       0.0       0.4       0.0       0.4
 4 H  py              2.1       1.9       0.0       1.8       0.0       1.8
 5 H  s               8.2       8.1       0.2      11.5       0.4      10.4
 5 H  pz              1.8       1.6       0.3       1.3       0.2       1.3
 5 H  px              0.0       0.0       0.0       0.4       0.0       0.4
 5 H  py              2.1       1.9       0.0       1.8       0.0       1.8
 6 H  s               8.2       8.1       9.9       1.8       9.8       1.1
 6 H  pz              0.3       0.3       0.1       0.4       0.1       0.2
 6 H  px              0.0       0.0       0.5       0.1       0.5       0.1
 6 H  py              3.5       3.2       2.5       0.3       2.7       0.2
 7 H  s               8.2       8.1       7.4       4.2       6.1       4.8
 7 H  pz              3.7       3.3       2.1       0.9       1.8       1.2
 7 H  px              0.0       0.0       0.3       0.2       0.3       0.2
 7 H  py              0.2       0.2       0.0       0.4       0.0       0.3

                     30        31        32        33        34        35   
                   1.40029   1.40030   1.40298   1.40298   1.80862   1.80864
                   0.00000   0.00000   0.00000   0.00000   0.00000   0.00000
                  --------  --------  --------  --------  --------  --------
 0 C  pz              0.2       0.1       0.2       0.1       0.0       0.0
 0 C  py              0.1       0.2       0.1       0.2       0.0       0.0
 0 C  dz2             0.1       3.8       0.1       3.7       0.0       0.0
 0 C  dxz             6.5       5.2       6.7       5.2       0.0       0.0
 0 C  dyz             4.8       0.2       4.7       0.2       0.0       0.0
 0 C  dx2y2           0.0       1.6       0.0       1.6       0.0       0.0
 0 C  dxy             5.3       5.8       5.3       6.1       0.0       0.0
 1 C  pz              0.2       0.1       0.2       0.1       0.0       0.0
 1 C  py              0.1       0.2       0.1       0.2       0.0       0.0
 1 C  dz2             0.1       3.9       0.1       3.7       0.0       0.0
 1 C  dxz             6.5       5.2       6.7       5.2       0.0       0.0
 1 C  dyz             4.8       0.2       4.6       0.2       0.0       0.0
 1 C  dx2y2           0.0       1.6       0.0       1.6       0.0       0.0
 1 C  dxy             5.3       5.9       5.3       6.0       0.0       0.0
 2 H  pz              0.0       1.2       0.0       1.3       0.0       1.7
 2 H  px              4.4       8.6       4.6       8.7       0.0       0.0
 2 H  py              5.5       2.2       5.3       2.1       0.0      31.6
 3 H  pz              6.6       0.9       6.4       0.8       0.0      30.5
 3 H  px              2.4      10.3       2.4      10.6       0.0       0.0
 3 H  py              0.1       1.6       0.1       1.7       0.0       2.9
 4 H  s               0.1       0.0       0.1       0.0       0.0       0.0
 4 H  pz              0.2       4.5       0.2       4.3       0.0      17.8
 4 H  px             13.0       0.0      13.3       0.1       0.0       0.0
 4 H  py              0.5       3.5       0.6       3.4       0.0      15.5
 5 H  s               0.1       0.0       0.1       0.0       0.0       0.0
 5 H  pz              0.2       4.5       0.2       4.3      17.8       0.0
 5 H  px             13.1       0.0      13.2       0.1       0.0       0.0
 5 H  py              0.5       3.6       0.6       3.3      15.5       0.0
 6 H  pz              6.6       0.9       6.3       0.8      30.5       0.0
 6 H  px              2.5      10.4       2.4      10.5       0.0       0.0
 6 H  py              0.1       1.6       0.1       1.6       2.9       0.0
 7 H  pz              0.0       1.2       0.0       1.3       1.7       0.0
 7 H  px              4.4       8.6       4.6       8.6       0.0       0.0
 7 H  py              5.5       2.2       5.2       2.1      31.6       0.0

                     36        37        38        39        40        41   
                   1.81398   1.82889   1.93668   1.93668   1.95962   1.95962
                   0.00000   0.00000   0.00000   0.00000   0.00000   0.00000
                  --------  --------  --------  --------  --------  --------
 0 C  s               3.4       2.3       0.0       0.0       0.0       0.0
 0 C  pz              0.0       0.0       1.4       1.2       1.5       1.5
 0 C  px              2.0       2.6       0.0       0.0       0.0       0.0
 0 C  py              0.0       0.0       1.2       1.3       1.5       1.5
 0 C  dz2             3.7       4.0       0.0       1.8       0.0       1.7
 0 C  dyz             0.0       0.0       2.4       0.0       2.3       0.0
 0 C  dx2y2          11.0      12.1       0.0       0.6       0.0       0.6
 1 C  s               3.4       2.3       0.0       0.0       0.0       0.0
 1 C  pz              0.0       0.0       1.4       1.2       1.5       1.5
 1 C  px              2.0       2.6       0.0       0.0       0.0       0.0
 1 C  py              0.0       0.0       1.2       1.4       1.5       1.5
 1 C  dz2             3.7       4.0       0.0       1.8       0.0       1.7
 1 C  dyz             0.0       0.0       2.4       0.0       2.3       0.0
 1 C  dx2y2          11.0      12.1       0.0       0.6       0.0       0.6
 2 H  s               0.8       0.7       0.3       0.7       0.3       0.7
 2 H  pz              0.1       0.1       5.1       4.1       4.9       4.1
 2 H  px              9.1       8.8       2.1       5.7       2.0       5.8
 2 H  py              0.0       0.0       6.4       5.6       6.6       5.4
 3 H  s               0.8       0.7       0.2       0.8       0.2       0.7
 3 H  pz              0.0       0.0       6.7       5.2       6.5       5.4
 3 H  px              9.2       8.9       1.4       5.9       1.5       5.7
 3 H  py              0.0       0.1       5.0       4.7       5.1       4.5
 4 H  s               0.8       0.7       0.9       0.0       0.9       0.0
 4 H  pz              0.0       0.0       4.8       5.9       4.5       6.1
 4 H  px              9.1       8.8       8.0       0.1       8.0       0.0
 4 H  py              0.1       0.1       3.9       6.3       4.0       6.1
 5 H  s               0.8       0.7       0.9       0.0       0.9       0.0
 5 H  pz              0.0       0.0       4.8       5.9       4.5       6.1
 5 H  px              9.1       8.8       8.0       0.1       8.0       0.0
 5 H  py              0.1       0.1       3.9       6.3       4.0       6.1
 6 H  s               0.8       0.7       0.2       0.8       0.2       0.7
 6 H  pz              0.0       0.0       6.7       5.2       6.5       5.4
 6 H  px              9.2       8.8       1.4       5.9       1.5       5.7
 6 H  py              0.0       0.1       5.0       4.8       5.1       4.5
 7 H  s               0.8       0.7       0.3       0.7       0.3       0.7
 7 H  pz              0.1       0.1       5.1       4.1       4.9       4.1
 7 H  px              9.1       8.8       2.1       5.7       2.0       5.8
 7 H  py              0.0       0.0       6.4       5.6       6.6       5.4

                     42        43        44        45        46        47   
                   2.27628   2.27628   2.27737   2.27737   2.47745   2.50958
                   0.00000   0.00000   0.00000   0.00000   0.00000   0.00000
                  --------  --------  --------  --------  --------  --------
 0 C  s               0.0       0.0       0.0       0.0       1.2       1.4
 0 C  pz              1.3       1.9       1.4       2.0       0.0       0.0
 0 C  px              0.0       0.0       0.0       0.0       2.1       2.3
 0 C  py              1.9       1.3       2.0       1.4       0.0       0.0
 0 C  dz2             5.2       0.2       5.4       0.2       5.7       5.3
 0 C  dxz             5.7       7.7       5.6       7.9       0.0       0.0
 0 C  dyz             0.2       7.4       0.2       7.7       0.0       0.0
 0 C  dx2y2           1.3       0.2       1.4       0.2      16.9      15.8
 0 C  dxy             8.6       5.6       8.7       5.5       0.1       0.1
 1 C  s               0.0       0.0       0.0       0.0       1.2       1.4
 1 C  pz              1.3       2.0       1.3       2.0       0.0       0.0
 1 C  px              0.0       0.0       0.0       0.0       2.1       2.3
 1 C  py              1.9       1.3       2.0       1.3       0.0       0.0
 1 C  dz2             5.3       0.2       5.3       0.2       5.7       5.3
 1 C  dxz             5.8       7.9       5.5       7.7       0.0       0.0
 1 C  dyz             0.2       7.6       0.2       7.5       0.0       0.0
 1 C  dx2y2           1.4       0.2       1.4       0.2      17.0      15.7
 1 C  dxy             8.7       5.7       8.6       5.4       0.1       0.1
 2 H  s               0.3       0.2       0.3       0.2       0.0       0.0
 2 H  pz              5.0       1.9       5.2       2.1       3.7       3.7
 2 H  px              5.0       2.8       4.9       2.8       4.1       4.5
 2 H  py              0.0       1.6       0.0       1.6       0.1       0.1
 3 H  s               0.4       0.1       0.5       0.1       0.0       0.0
 3 H  pz              0.1       1.6       0.1       1.6       0.3       0.3
 3 H  px              7.1       1.2       7.0       1.2       3.8       4.2
 3 H  py              5.9       0.4       6.2       0.5       3.8       3.8
 4 H  s               0.0       0.5       0.0       0.5       0.0       0.0
 4 H  pz              1.1       2.9       1.1       3.1       1.8       1.8
 4 H  px              0.1       7.4       0.1       7.3       4.2       4.6
 4 H  py              0.2       4.5       0.2       4.8       1.9       1.9
 5 H  s               0.0       0.5       0.0       0.5       0.0       0.0
 5 H  pz              1.1       3.0       1.1       3.0       1.8       1.8
 5 H  px              0.1       7.6       0.2       7.2       4.2       4.6
 5 H  py              0.2       4.6       0.2       4.7       1.9       1.9
 6 H  s               0.4       0.1       0.5       0.1       0.0       0.0
 6 H  pz              0.1       1.7       0.1       1.6       0.3       0.3
 6 H  px              7.2       1.2       6.9       1.1       3.8       4.2
 6 H  py              5.9       0.4       6.1       0.5       3.8       3.8
 7 H  s               0.3       0.2       0.3       0.2       0.0       0.0
 7 H  pz              5.1       2.0       5.1       2.1       3.7       3.7
 7 H  px              5.1       2.8       4.8       2.7       4.1       4.5
 7 H  py              0.0       1.7       0.0       1.6       0.1       0.1

                     48        49        50        51        52        53   
                   2.76802   2.76802   2.77162   2.77163   3.08079   3.08204
                   0.00000   0.00000   0.00000   0.00000   0.00000   0.00000
                  --------  --------  --------  --------  --------  --------
 0 C  s               0.0       0.0       0.0       0.0      12.9      13.0
 0 C  pz              0.5       0.5       0.5       0.5       0.0       0.0
 0 C  px              0.0       0.0       0.0       0.0       1.7       1.8
 0 C  py              0.5       0.5       0.5       0.5       0.0       0.0
 0 C  dz2            10.8       0.2      10.9       0.2       1.8       1.9
 0 C  dxz             7.7       9.2       7.4       9.3       0.0       0.0
 0 C  dyz             0.3      13.7       0.4      13.9       0.0       0.0
 0 C  dx2y2           4.2       0.0       4.3       0.0       5.4       5.5
 0 C  dxy             7.9       7.8       8.0       7.6       0.0       0.0
 1 C  s               0.0       0.0       0.0       0.0      13.1      12.8
 1 C  pz              0.5       0.5       0.5       0.5       0.0       0.0
 1 C  px              0.0       0.0       0.0       0.0       1.8       1.8
 1 C  py              0.5       0.5       0.5       0.5       0.0       0.0
 1 C  dz2            10.8       0.2      10.8       0.2       1.8       1.8
 1 C  dxz             7.7       9.2       7.4       9.3       0.0       0.0
 1 C  dyz             0.3      13.8       0.4      13.8       0.0       0.0
 1 C  dx2y2           4.3       0.0       4.3       0.0       5.5       5.5
 1 C  dxy             7.9       7.9       8.0       7.5       0.0       0.0
 2 H  s               0.1       0.0       0.1       0.0       2.1       2.1
 2 H  pz              1.7       0.0       1.6       0.0       5.4       5.4
 2 H  px              1.4       0.8       1.3       0.8       1.5       1.6
 2 H  py              1.9       6.1       2.0       6.2       0.3       0.3
 3 H  s               0.1       0.0       0.1       0.0       2.1       2.1
 3 H  pz              0.9       6.9       0.9       7.1       0.5       0.5
 3 H  px              1.6       0.4       1.6       0.4       1.7       1.8
 3 H  py              2.0       0.1       1.9       0.1       5.0       5.0
 4 H  s               0.0       0.1       0.0       0.1       2.1       2.1
 4 H  pz              4.7       0.5       4.8       0.4       2.6       2.6
 4 H  px              0.0       2.2       0.0       2.2       1.4       1.5
 4 H  py              3.7       0.9       3.8       0.8       3.2       3.2
 5 H  s               0.0       0.1       0.0       0.1       2.1       2.1
 5 H  pz              4.7       0.5       4.8       0.4       2.7       2.6
 5 H  px              0.0       2.2       0.0       2.2       1.4       1.5
 5 H  py              3.7       0.9       3.7       0.8       3.2       3.1
 6 H  s               0.1       0.0       0.1       0.0       2.1       2.1
 6 H  pz              0.9       6.9       0.9       7.1       0.5       0.5
 6 H  px              1.6       0.4       1.6       0.4       1.7       1.7
 6 H  py              2.0       0.1       1.9       0.1       5.1       4.9
 7 H  s               0.1       0.0       0.1       0.0       2.1       2.1
 7 H  pz              1.7       0.0       1.6       0.0       5.5       5.3
 7 H  px              1.4       0.8       1.3       0.8       1.5       1.5
 7 H  py              1.9       6.2       2.0       6.1       0.3       0.3

                     54        55        56        57   
                   3.27956   3.27956   3.28959   3.28959
                   0.00000   0.00000   0.00000   0.00000
                  --------  --------  --------  --------
 0 C  pz              3.0       3.8       2.9       4.1
 0 C  py              3.8       3.0       4.1       2.9
 0 C  dz2             0.0      10.3       0.0      10.2
 0 C  dxz             2.0       3.0       2.0       3.3
 0 C  dyz            14.0       0.0      14.0       0.0
 0 C  dx2y2           0.0       3.1       0.0       3.1
 0 C  dxy             3.0       2.7       3.3       2.6
 1 C  pz              3.0       3.9       2.9       4.0
 1 C  py              3.9       3.0       4.0       2.9
 1 C  dz2             0.0      10.3       0.0      10.2
 1 C  dxz             2.1       3.0       2.0       3.3
 1 C  dyz            14.1       0.0      13.9       0.0
 1 C  dx2y2           0.0       3.1       0.0       3.1
 1 C  dxy             3.0       2.7       3.2       2.6
 2 H  s               1.4       4.6       1.3       4.9
 2 H  pz              2.1       6.2       1.9       6.4
 2 H  px              0.2       0.8       0.2       0.8
 2 H  py              0.0       0.6       0.0       0.6
 3 H  s               1.6       4.4       1.8       4.3
 3 H  pz              0.0       0.9       0.0       0.8
 3 H  px              0.3       0.9       0.4       0.8
 3 H  py              2.4       5.5       2.5       5.2
 4 H  s               6.0       0.0       6.1       0.0
 4 H  pz              4.0       0.1       4.0       0.1
 4 H  px              0.9       0.0       0.9       0.0
 4 H  py              4.8       0.0       4.8       0.0
 5 H  s               6.0       0.0       6.1       0.0
 5 H  pz              4.1       0.1       4.0       0.1
 5 H  px              0.9       0.0       0.9       0.0
 5 H  py              4.9       0.0       4.8       0.0
 6 H  s               1.6       4.4       1.8       4.3
 6 H  pz              0.0       0.9       0.0       0.8
 6 H  px              0.3       0.9       0.4       0.8
 6 H  py              2.4       5.5       2.5       5.2
 7 H  s               1.4       4.6       1.3       4.9
 7 H  pz              2.1       6.2       1.9       6.4
 7 H  px              0.2       0.8       0.2       0.8
 7 H  py              0.0       0.6       0.0       0.6


                      *****************************
                      * MAYER POPULATION ANALYSIS *
                      *****************************

  NA   - Mulliken gross atomic population
  ZA   - Total nuclear charge
  QA   - Mulliken gross atomic charge
  VA   - Mayer's total valence
  BVA  - Mayer's bonded valence
  FA   - Mayer's free valence

  ATOM       NA         ZA         QA         VA         BVA        FA
  0 C      6.1873     6.0000    -0.1873     3.9178     3.9178    -0.0000
  1 C      6.1873     6.0000    -0.1873     3.9178     3.9178     0.0000
  2 H      0.9376     1.0000     0.0624     0.9782     0.9782    -0.0000
  3 H      0.9376     1.0000     0.0624     0.9782     0.9782    -0.0000
  4 H      0.9376     1.0000     0.0624     0.9782     0.9782     0.0000
  5 H      0.9376     1.0000     0.0624     0.9782     0.9782     0.0000
  6 H      0.9376     1.0000     0.0624     0.9782     0.9782     0.0000
  7 H      0.9376     1.0000     0.0624     0.9782     0.9782    -0.0000

  Mayer bond orders larger than 0.100000
B(  0-C ,  1-C ) :   0.9467 B(  0-C ,  2-H ) :   0.9816 B(  0-C ,  3-H ) :   0.9816 
B(  0-C ,  4-H ) :   0.9816 B(  1-C ,  5-H ) :   0.9816 B(  1-C ,  6-H ) :   0.9816 
B(  1-C ,  7-H ) :   0.9816 

-------
TIMINGS
-------

Total SCF time: 0 days 0 hours 0 min 4 sec 

Total time                  ....       4.276 sec
Sum of individual times     ....       3.448 sec  ( 80.6%)

Fock matrix formation       ....       2.804 sec  ( 65.6%)
Diagonalization             ....       0.095 sec  (  2.2%)
Density matrix formation    ....       0.001 sec  (  0.0%)
Population analysis         ....       0.124 sec  (  2.9%)
Initial guess               ....       0.171 sec  (  4.0%)
Orbital Transformation      ....       0.000 sec  (  0.0%)
Orbital Orthonormalization  ....       0.000 sec  (  0.0%)
DIIS solution               ....       0.166 sec  (  3.9%)
SOSCF solution              ....       0.050 sec  (  1.2%)

-------------------------   --------------------
FINAL SINGLE POINT ENERGY       -78.880469525796
-------------------------   --------------------


                            ***************************************
                            *     ORCA property calculations      *
                            ***************************************

                                    ---------------------
                                    Active property flags
                                    ---------------------
   (+) Dipole Moment


------------------------------------------------------------------------------
                       ORCA ELECTRIC PROPERTIES CALCULATION
------------------------------------------------------------------------------

Dipole Moment Calculation                       ... on
Quadrupole Moment Calculation                   ... off
Polarizability Calculation                      ... off
GBWName                                         ... Orca3.gbw
Electron density file                           ... Orca3.scfp
The origin for moment calculation is the CENTER OF MASS  = (-7.904471,  6.671281  0.000000)

-------------
DIPOLE MOMENT
-------------
                                X             Y             Z
Electronic contribution:     -0.00010       0.00001       0.00000
Nuclear contribution   :     -0.00001      -0.00001       0.00000
                        -----------------------------------------
Total Dipole Moment    :     -0.00011       0.00000       0.00000
                        -----------------------------------------
Magnitude (a.u.)       :      0.00011
Magnitude (Debye)      :      0.00028



--------------------
Rotational spectrum 
--------------------
 
Rotational constants in cm-1:     2.738863     0.130437     0.130437 
Rotational constants in MHz : 82109.035211  3910.413036  3910.412512 

 Dipole components along the rotational axes: 
x,y,z [a.u.] :    -0.000111    -0.000000     0.000001 
x,y,z [Debye]:    -0.000282    -0.000001     0.000002 

 

Timings for individual modules:

Sum of individual times         ...        8.081 sec (=   0.135 min)
GTO integral calculation        ...        1.891 sec (=   0.032 min)  23.4 %
SCF iterations                  ...        6.190 sec (=   0.103 min)  76.6 %
                             ****ORCA TERMINATED NORMALLY****
TOTAL RUN TIME: 0 days 0 hours 0 minutes 9 seconds 145 msec
