
                                 *****************
                                 * O   R   C   A *
                                 *****************

           --- An Ab Initio, DFT and Semiempirical electronic structure package ---

                  #######################################################
                  #                        -***-                        #
                  #          Department of theory and spectroscopy      #
                  #               Directorship: Frank Neese             #
                  #        Max Planck Institute fuer Kohlenforschung    #
                  #                Kaiser Wilhelm Platz 1               #
                  #                 D-45470 Muelheim/Ruhr               #
                  #                      Germany                        #
                  #                                                     #
                  #                  All rights reserved                #
                  #                        -***-                        #
                  #######################################################


                         Program Version 4.2.1 -  RELEASE  -


 With contributions from (in alphabetic order):
   Daniel Aravena         : Magnetic Suceptibility
   Michael Atanasov       : Ab Initio Ligand Field Theory (pilot matlab implementation)
   Alexander A. Auer      : GIAO ZORA, VPT2
   Ute Becker             : Parallelization
   Giovanni Bistoni       : ED, misc. LED, open-shell LED, HFLD
   Martin Brehm           : Molecular dynamics
   Dmytro Bykov           : SCF Hessian
   Vijay G. Chilkuri      : MRCI spin determinant printing, contributions to CSF-ICE
   Dipayan Datta          : RHF DLPNO-CCSD density
   Achintya Kumar Dutta   : EOM-CC, STEOM-CC
   Dmitry Ganyushin       : Spin-Orbit,Spin-Spin,Magnetic field MRCI
   Miquel Garcia          : C-PCM Hessian, Gaussian charge scheme
   Yang Guo               : DLPNO-NEVPT2, CIM, IAO-localization
   Andreas Hansen         : Spin unrestricted coupled pair/coupled cluster methods
   Benjamin Helmich-Paris : CASSCF linear response (MC-RPA)
   Lee Huntington         : MR-EOM, pCC
   Robert Izsak           : Overlap fitted RIJCOSX, COSX-SCS-MP3, EOM
   Christian Kollmar      : KDIIS, OOCD, Brueckner-CCSD(T), CCSD density
   Simone Kossmann        : Meta GGA functionals, TD-DFT gradient, OOMP2, MP2 Hessian
   Martin Krupicka        : AUTO-CI
   Lucas Lang             : DCDCAS
   Dagmar Lenk            : GEPOL surface, SMD
   Dimitrios Liakos       : Extrapolation schemes; Compound Job, initial MDCI parallelization
   Dimitrios Manganas     : Further ROCIS development; embedding schemes
   Dimitrios Pantazis     : SARC Basis sets
   Taras Petrenko         : DFT Hessian,TD-DFT gradient, ASA, ECA, R-Raman, ABS, FL, XAS/XES, NRVS
   Peter Pinski           : DLPNO-MP2, DLPNO-MP2 Gradient
   Christoph Reimann      : Effective Core Potentials
   Marius Retegan         : Local ZFS, SOC
   Christoph Riplinger    : Optimizer, TS searches, QM/MM, DLPNO-CCSD(T), (RO)-DLPNO pert. Triples
   Tobias Risthaus        : Range-separated hybrids, TD-DFT gradient, RPA, STAB
   Michael Roemelt        : Original ROCIS implementation
   Masaaki Saitow         : Open-shell DLPNO-CCSD energy and density
   Barbara Sandhoefer     : DKH picture change effects
   Avijit Sen             : IP-ROCIS
   Kantharuban Sivalingam : CASSCF convergence, NEVPT2, FIC-MRCI
   Bernardo de Souza      : ESD, SOC TD-DFT
   Georgi Stoychev        : AutoAux, RI-MP2 NMR
   Willem Van den Heuvel  : Paramagnetic NMR
   Boris Wezisla          : Elementary symmetry handling
   Frank Wennmohs         : Technical directorship


 We gratefully acknowledge several colleagues who have allowed us to
 interface, adapt or use parts of their codes:
   Stefan Grimme, W. Hujo, H. Kruse,             : VdW corrections, initial TS optimization,
                  C. Bannwarth                     DFT functionals, gCP, sTDA/sTD-DF
   Ed Valeev, F. Pavosevic, A. Kumar             : LibInt (2-el integral package), F12 methods
   Garnet Chan, S. Sharma, J. Yang, R. Olivares  : DMRG
   Ulf Ekstrom                                   : XCFun DFT Library
   Mihaly Kallay                                 : mrcc  (arbitrary order and MRCC methods)
   Andreas Klamt, Michael Diedenhofen            : otool_cosmo (COSMO solvation model)
   Jiri Pittner, Ondrej Demel                    : Mk-CCSD
   Frank Weinhold                                : gennbo (NPA and NBO analysis)
   Christopher J. Cramer and Donald G. Truhlar   : smd solvation model
   Lars Goerigk                                  : TD-DFT with DH, B97 family of functionals
   V. Asgeirsson, H. Jonsson                     : NEB implementation
   FAccTs GmbH                                   : IRC, NEB, NEB-TS, Multilevel, MM, QM/MM, CI optimization
   S Lehtola, MJT Oliveira, MAL Marques          : LibXC Library


 Your calculation uses the libint2 library for the computation of 2-el integrals
 For citations please refer to: http://libint.valeyev.net

 Your ORCA version has been built with support for libXC version: 4.2.3
 For citations please refer to: https://tddft.org/programs/libxc/

 This ORCA versions uses:
   CBLAS   interface :  Fast vector & matrix operations
   LAPACKE interface :  Fast linear algebra routines


----- Orbital basis set information -----
Your calculation utilizes the basis: SVP 

================================================================================
                                        WARNINGS
                       Please study these warnings very carefully!
================================================================================


INFO   : the flag for use of LIBINT has been found!

================================================================================
                                       INPUT FILE
================================================================================
NAME = Orca2.inp
|  1> # Unrestricted Hartree-Fock single point calculation
|  2> # with tight SCF convergence criteria
|  3> #
|  4> ! UHF SVP TightSCF pal8
|  5> 
|  6> * xyz 1 2
|  7>   C 0.0 0.0 0.0
|  8>   O 0.0 0.0 1.13
|  9> **                         ****END OF INPUT****
================================================================================

                       ****************************
                       * Single Point Calculation *
                       ****************************

---------------------------------
CARTESIAN COORDINATES (ANGSTROEM)
---------------------------------
  C      0.000000    0.000000    0.000000
  O      0.000000    0.000000    1.130000

----------------------------
CARTESIAN COORDINATES (A.U.)
----------------------------
  NO LB      ZA    FRAG     MASS         X           Y           Z
   0 C     6.0000    0    12.011    0.000000    0.000000    0.000000
   1 O     8.0000    0    15.999    0.000000    0.000000    2.135391

--------------------------------
INTERNAL COORDINATES (ANGSTROEM)
--------------------------------
 C      0   0   0     0.000000000000     0.00000000     0.00000000
 O      1   0   0     1.130000000000     0.00000000     0.00000000

---------------------------
INTERNAL COORDINATES (A.U.)
---------------------------
 C      0   0   0     0.000000000000     0.00000000     0.00000000
 O      1   0   0     2.135390531331     0.00000000     0.00000000

---------------------
BASIS SET INFORMATION
---------------------
There are 2 groups of distinct atoms

 Group   1 Type C   : 7s4p1d contracted to 3s2p1d pattern {511/31/1}
 Group   2 Type O   : 7s4p1d contracted to 3s2p1d pattern {511/31/1}

Atom   0C    basis set group =>   1
Atom   1O    basis set group =>   2


           ************************************************************
           *        Program running with 8 parallel MPI-processes     *
           *              working on a common directory               *
           ************************************************************
------------------------------------------------------------------------------
                           ORCA GTO INTEGRAL CALCULATION
------------------------------------------------------------------------------

                         BASIS SET STATISTICS AND STARTUP INFO

 # of primitive gaussian shells          ...   24
 # of primitive gaussian functions       ...   48
 # of contracted shells                  ...   12
 # of contracted basis functions         ...   28
 Highest angular momentum                ...    2
 Maximum contraction depth               ...    5
 Integral package used                   ... LIBINT
 Integral threshhold            Thresh   ...  2.500e-11
 Primitive cut-off              TCut     ...  2.500e-12


------------------------------ INTEGRAL EVALUATION ----------------------------


 * One electron integrals 
 Pre-screening matrix                    ... done
 Shell pair data                         ... done (   0.000 sec)

Timings:
 Total evaluation time               ...     0.029 sec (   0.000 min)
 One electron matrix time            ...     0.031 sec (   0.001 min) =106.9%
 Schwartz matrix evaluation time     ...     0.374 sec (   0.006 min) =1289.7%



           ************************************************************
           *        Program running with 8 parallel MPI-processes     *
           *              working on a common directory               *
           ************************************************************
-------------------------------------------------------------------------------
                                 ORCA SCF
-------------------------------------------------------------------------------

------------
SCF SETTINGS
------------
Hamiltonian:
 Ab initio Hamiltonian  Method          .... Hartree-Fock(GTOs)


General Settings:
 Integral files         IntName         .... Orca2
 Hartree-Fock type      HFTyp           .... UHF
 Total Charge           Charge          ....    1
 Multiplicity           Mult            ....    2
 Number of Electrons    NEL             ....   13
 Basis Dimension        Dim             ....   28
 Nuclear Repulsion      ENuc            ....     22.4783238924 Eh

Convergence Acceleration:
 DIIS                   CNVDIIS         .... on
   Start iteration      DIISMaxIt       ....    12
   Startup error        DIISStart       ....  0.200000
   # of expansion vecs  DIISMaxEq       ....     5
   Bias factor          DIISBfac        ....   1.050
   Max. coefficient     DIISMaxC        ....  10.000
 Newton-Raphson         CNVNR           .... off
 SOSCF                  CNVSOSCF        .... off
 Level Shifting         CNVShift        .... on
   Level shift para.    LevelShift      ....    0.2500
   Turn off err/grad.   ShiftErr        ....    0.0010
 Zerner damping         CNVZerner       .... off
 Static damping         CNVDamp         .... on
   Fraction old density DampFac         ....    0.7000
   Max. Damping (<1)    DampMax         ....    0.9800
   Min. Damping (>=0)   DampMin         ....    0.0000
   Turn off err/grad.   DampErr         ....    0.1000
 Fernandez-Rico         CNVRico         .... off

SCF Procedure:
 Maximum # iterations   MaxIter         ....   125
 SCF integral mode      SCFMode         .... Direct
   Integral package                     .... LIBINT
 Reset frequency        DirectResetFreq ....    20
 Integral Threshold     Thresh          ....  2.500e-11 Eh
 Primitive CutOff       TCut            ....  2.500e-12 Eh

Convergence Tolerance:
 Convergence Check Mode ConvCheckMode   .... Total+1el-Energy
 Convergence forced     ConvForced      .... 0
 Energy Change          TolE            ....  1.000e-08 Eh
 1-El. energy change                    ....  1.000e-05 Eh
 DIIS Error             TolErr          ....  5.000e-07


Diagonalization of the overlap matrix:
Smallest eigenvalue                        ... 1.911e-02
Time for diagonalization                   ...    0.003 sec
Threshold for overlap eigenvalues          ... 1.000e-08
Number of eigenvalues below threshold      ... 0
Time for construction of square roots      ...    0.021 sec
Total time needed                          ...    0.024 sec

-------------------
DFT GRID GENERATION
-------------------

General Integration Accuracy     IntAcc      ...  4.340
Radial Grid Type                 RadialGrid  ... Gauss-Chebyshev
Angular Grid (max. acc.)         AngularGrid ... Lebedev-110
Angular grid pruning method      GridPruning ... 3 (G Style)
Weight generation scheme         WeightScheme... Becke
Basis function cutoff            BFCut       ...    1.0000e-11
Integration weight cutoff        WCut        ...    1.0000e-14
Grids for H and He will be reduced by one unit

# of grid points (after initial pruning)     ...   3372 (   0.0 sec)
# of grid points (after weights+screening)   ...   3345 (   0.0 sec)
nearest neighbour list constructed           ...    0.0 sec
Grid point re-assignment to atoms done       ...    0.0 sec
Grid point division into batches done        ...    0.0 sec
Reduced shell lists constructed in    0.0 sec

Total number of grid points                  ...     3345
Total number of batches                      ...       54
Average number of points per batch           ...       61
Average number of grid points per atom       ...     1673
Average number of shells per batch           ...     7.38 (61.46%)
Average number of basis functions per batch  ...    18.13 (64.73%)
Average number of large shells per batch     ...     5.63 (76.27%)
Average number of large basis fcns per batch ...    12.63 (69.66%)
Maximum spatial batch extension              ...  20.95, 31.36, 17.25 au
Average spatial batch extension              ...   2.13,  2.54,  2.01 au

Time for grid setup =    0.093 sec

------------------------------
INITIAL GUESS: MODEL POTENTIAL
------------------------------
Loading Hartree-Fock densities                     ... done
Calculating cut-offs                               ... done
Setting up the integral package                    ... done
Initializing the effective Hamiltonian             ... done
Starting the Coulomb interaction                   ... done (   0.0 sec)
Reading the grid                                   ... done
Mapping shells                                     ... done
Starting the XC term evaluation                    ... done (   0.0 sec)
Transforming the Hamiltonian                       ... done (   0.0 sec)
Diagonalizing the Hamiltonian                      ... done (   0.0 sec)
Back transforming the eigenvectors                 ... done (   0.0 sec)
Now organizing SCF variables                       ... done
                      ------------------
                      INITIAL GUESS DONE (   0.3 sec)
                      ------------------
--------------
SCF ITERATIONS
--------------
ITER       Energy         Delta-E        Max-DP      RMS-DP      [F,P]     Damp
               ***  Starting incremental Fock matrix formation  ***
  0   -112.0672625896   0.000000000000 0.05224555  0.00309230  0.2416552 0.7000
  1   -112.1004552099  -0.033192620301 0.04072497  0.00222418  0.1271609 0.7000
                               ***Turning on DIIS***
  2   -112.1174844662  -0.017029256253 0.09088320  0.00465033  0.0512528 0.0000
  3   -112.1252278447  -0.007743378483 0.01820712  0.00146741  0.0641786 0.0000
  4   -112.1483579008  -0.023130056127 0.01301024  0.00094156  0.0101821 0.0000
  5   -112.1556332899  -0.007275389043 0.00767968  0.00068330  0.0050323 0.0000
  6   -112.1580082113  -0.002374921455 0.00749661  0.00059582  0.0041622 0.0000
  7   -112.1591571995  -0.001148988148 0.01009569  0.00078882  0.0037035 0.0000
  8   -112.1637506191  -0.004593419654 0.01718613  0.00134440  0.0031705 0.0000
  9   -112.1707695258  -0.007018906699 0.02358555  0.00177450  0.0024000 0.0000
 10   -112.1721359072  -0.001366381392 0.01606418  0.00117999  0.0015217 0.0000
 11   -112.1695048963   0.002631010869 0.00956418  0.00068396  0.0006830 0.0000
 12   -112.1704561683  -0.000951272010 0.00899232  0.00064066  0.0008180 0.0000
 13   -112.1637790625   0.006677105853 0.00568801  0.00039403  0.0002758 0.0000
 14   -112.1682868400  -0.004507777497 0.00101062  0.00006218  0.0006655 0.0000
 15   -112.1666793600   0.001607479980 0.00128002  0.00009506  0.0001300 0.0000
 16   -112.1667273192  -0.000047959192 0.00053747  0.00003974  0.0000281 0.0000
 17   -112.1668628555  -0.000135536264 0.00001425  0.00000124  0.0000059 0.0000
 18   -112.1668791342  -0.000016278689 0.00002833  0.00000200  0.0000032 0.0000
 19   -112.1668798473  -0.000000713156 0.00002183  0.00000153  0.0000019 0.0000
               *** Restarting incremental Fock matrix formation ***
                                   *** Resetting DIIS ***
                            ***DIIS convergence achieved***

               *****************************************************
               *                     SUCCESS                       *
               *           SCF CONVERGED AFTER  20 CYCLES          *
               *****************************************************


----------------
TOTAL SCF ENERGY
----------------

Total Energy       :         -112.16687379 Eh           -3052.21581 eV

Components:
Nuclear Repulsion  :           22.47832389 Eh             611.66629 eV
Electronic Energy  :         -134.64519769 Eh           -3663.88210 eV
One Electron Energy:         -192.06983018 Eh           -5226.48579 eV
Two Electron Energy:           57.42463250 Eh            1562.60369 eV

Virial components:
Potential Energy   :         -223.94638600 Eh           -6093.89097 eV
Kinetic Energy     :          111.77951220 Eh            3041.67516 eV
Virial Ratio       :            2.00346541


---------------
SCF CONVERGENCE
---------------

  Last Energy change         ...    6.0528e-06  Tolerance :   1.0000e-08
  Last MAX-Density change    ...    5.3882e-07  Tolerance :   1.0000e-07
  Last RMS-Density change    ...    3.5123e-08  Tolerance :   5.0000e-09
  Last DIIS Error            ...    4.5651e-07  Tolerance :   5.0000e-07

             **** THE GBW FILE WAS UPDATED (Orca2.gbw) ****
             **** DENSITY FILE WAS UPDATED (Orca2.scfp) ****
             **** ENERGY FILE WAS UPDATED (Orca2.en.tmp) ****
----------------------
UHF SPIN CONTAMINATION
----------------------

Expectation value of <S**2>     :     1.022791
Ideal value S*(S+1) for S=0.5   :     0.750000
Deviation                       :     0.272791

             **** THE GBW FILE WAS UPDATED (Orca2.gbw) ****
             **** DENSITY FILE WAS UPDATED (Orca2.scfp) ****
----------------
ORBITAL ENERGIES
----------------
                 SPIN UP ORBITALS
  NO   OCC          E(Eh)            E(eV) 
   0   1.0000     -21.074356      -573.4624 
   1   1.0000     -11.872269      -323.0609 
   2   1.0000      -1.878249       -51.1098 
   3   1.0000      -1.196098       -32.5475 
   4   1.0000      -1.079323       -29.3699 
   5   1.0000      -0.993581       -27.0367 
   6   1.0000      -0.993581       -27.0367 
   7   0.0000      -0.245044        -6.6680 
   8   0.0000      -0.245044        -6.6680 
   9   0.0000       0.036724         0.9993 
  10   0.0000       0.165920         4.5149 
  11   0.0000       0.274384         7.4664 
  12   0.0000       0.274384         7.4664 
  13   0.0000       0.604604        16.4521 
  14   0.0000       0.762449        20.7473 
  15   0.0000       0.937843        25.5200 
  16   0.0000       0.937843        25.5200 
  17   0.0000       1.163305        31.6551 
  18   0.0000       1.410698        38.3870 
  19   0.0000       1.410698        38.3870 
  20   0.0000       1.499916        40.8148 
  21   0.0000       1.499916        40.8148 
  22   0.0000       2.301990        62.6403 
  23   0.0000       2.623166        71.3800 
  24   0.0000       2.623166        71.3800 
  25   0.0000       3.168726        86.2254 
  26   0.0000       3.168726        86.2254 
  27   0.0000       3.625529        98.6557 

                 SPIN DOWN ORBITALS
  NO   OCC          E(Eh)            E(eV) 
   0   1.0000     -21.106788      -574.3449 
   1   1.0000     -11.806093      -321.2601 
   2   1.0000      -1.918950       -52.2173 
   3   1.0000      -1.166830       -31.7511 
   4   1.0000      -1.067223       -29.0406 
   5   1.0000      -1.067223       -29.0406 
   6   0.0000      -0.402917       -10.9639 
   7   0.0000      -0.173174        -4.7123 
   8   0.0000      -0.173174        -4.7123 
   9   0.0000       0.074607         2.0302 
  10   0.0000       0.280632         7.6364 
  11   0.0000       0.347050         9.4437 
  12   0.0000       0.347050         9.4437 
  13   0.0000       0.646540        17.5933 
  14   0.0000       0.789907        21.4945 
  15   0.0000       0.871337        23.7103 
  16   0.0000       0.871337        23.7103 
  17   0.0000       1.155857        31.4525 
  18   0.0000       1.514275        41.2055 
  19   0.0000       1.514275        41.2055 
  20   0.0000       1.582541        43.0631 
  21   0.0000       1.582541        43.0631 
  22   0.0000       2.369661        64.4817 
  23   0.0000       2.546040        69.2813 
  24   0.0000       2.546040        69.2813 
  25   0.0000       3.158106        85.9364 
  26   0.0000       3.158106        85.9364 
  27   0.0000       3.615084        98.3714 

                    ********************************
                    * MULLIKEN POPULATION ANALYSIS *
                    ********************************

--------------------------------------------
MULLIKEN ATOMIC CHARGES AND SPIN POPULATIONS
--------------------------------------------
   0 C :    0.806583    1.718361
   1 O :    0.193417   -0.718361
Sum of atomic charges         :    1.0000000
Sum of atomic spin populations:    1.0000000

-----------------------------------------------------
MULLIKEN REDUCED ORBITAL CHARGES AND SPIN POPULATIONS
-----------------------------------------------------
CHARGE
  0 C s       :     3.101490  s :     3.101490
      pz      :     0.752774  p :     2.016638
      px      :     0.631932
      py      :     0.631932
      dz2     :     0.021934  d :     0.075289
      dxz     :     0.026678
      dyz     :     0.026678
      dx2y2   :     0.000000
      dxy     :     0.000000
  1 O s       :     3.793457  s :     3.793457
      pz      :     1.318383  p :     3.980656
      px      :     1.331136
      py      :     1.331136
      dz2     :     0.011961  d :     0.032470
      dxz     :     0.010254
      dyz     :     0.010254
      dx2y2   :     0.000000
      dxy     :     0.000000

SPIN
  0 C s       :     0.597841  s :     0.597841
      pz      :     0.426780  p :     1.135116
      px      :     0.354168
      py      :     0.354168
      dz2     :    -0.001844  d :    -0.014596
      dxz     :    -0.006376
      dyz     :    -0.006376
      dx2y2   :    -0.000000
      dxy     :    -0.000000
  1 O s       :    -0.026401  s :    -0.026401
      pz      :     0.002988  p :    -0.698248
      px      :    -0.350618
      py      :    -0.350618
      dz2     :     0.000635  d :     0.006288
      dxz     :     0.002826
      dyz     :     0.002826
      dx2y2   :    -0.000000
      dxy     :    -0.000000


                     *******************************
                     * LOEWDIN POPULATION ANALYSIS *
                     *******************************

-------------------------------------------
LOEWDIN ATOMIC CHARGES AND SPIN POPULATIONS
-------------------------------------------
   0 C :    0.688006    1.601738
   1 O :    0.311994   -0.601738

----------------------------------------------------
LOEWDIN REDUCED ORBITAL CHARGES AND SPIN POPULATIONS
----------------------------------------------------
CHARGE
  0 C s       :     2.980886  s :     2.980886
      pz      :     0.893941  p :     2.193651
      px      :     0.649855
      py      :     0.649855
      dz2     :     0.054022  d :     0.137458
      dxz     :     0.041718
      dyz     :     0.041718
      dx2y2   :     0.000000
      dxy     :     0.000000
  1 O s       :     3.546521  s :     3.546521
      pz      :     1.501105  p :     4.094744
      px      :     1.296819
      py      :     1.296819
      dz2     :     0.023525  d :     0.046741
      dxz     :     0.011608
      dyz     :     0.011608
      dx2y2   :     0.000000
      dxy     :     0.000000

SPIN
  0 C s       :     0.524541  s :     0.524541
      pz      :     0.450813  p :     1.108175
      px      :     0.328681
      py      :     0.328681
      dz2     :    -0.002718  d :    -0.030979
      dxz     :    -0.014130
      dyz     :    -0.014130
      dx2y2   :    -0.000000
      dxy     :    -0.000000
  1 O s       :    -0.005843  s :    -0.005843
      pz      :     0.032191  p :    -0.607947
      px      :    -0.320069
      py      :    -0.320069
      dz2     :     0.001016  d :     0.012052
      dxz     :     0.005518
      dyz     :     0.005518
      dx2y2   :    -0.000000
      dxy     :    -0.000000


                      *****************************
                      * MAYER POPULATION ANALYSIS *
                      *****************************

  NA   - Mulliken gross atomic population
  ZA   - Total nuclear charge
  QA   - Mulliken gross atomic charge
  VA   - Mayer's total valence
  BVA  - Mayer's bonded valence
  FA   - Mayer's free valence

  ATOM       NA         ZA         QA         VA         BVA        FA
  0 C      5.1934     6.0000     0.8066     3.6958     2.4875     1.2083
  1 O      7.8066     8.0000     0.1934     2.7426     2.4875     0.2551

  Mayer bond orders larger than 0.100000
B(  0-C ,  1-O ) :   2.4875 

-------
TIMINGS
-------

Total SCF time: 0 days 0 hours 0 min 11 sec 

Total time                  ....      11.391 sec
Sum of individual times     ....       9.959 sec  ( 87.4%)

Fock matrix formation       ....       8.496 sec  ( 74.6%)
Diagonalization             ....       0.507 sec  (  4.5%)
Density matrix formation    ....       0.257 sec  (  2.3%)
Population analysis         ....       0.126 sec  (  1.1%)
Initial guess               ....       0.242 sec  (  2.1%)
Orbital Transformation      ....       0.000 sec  (  0.0%)
Orbital Orthonormalization  ....       0.000 sec  (  0.0%)
DIIS solution               ....       0.238 sec  (  2.1%)

-------------------------   --------------------
FINAL SINGLE POINT ENERGY      -112.166873794530
-------------------------   --------------------


                            ***************************************
                            *     ORCA property calculations      *
                            ***************************************

                                    ---------------------
                                    Active property flags
                                    ---------------------
   (+) Dipole Moment


------------------------------------------------------------------------------
                       ORCA ELECTRIC PROPERTIES CALCULATION
------------------------------------------------------------------------------

Dipole Moment Calculation                       ... on
Quadrupole Moment Calculation                   ... off
Polarizability Calculation                      ... off
GBWName                                         ... Orca2.gbw
Electron density file                           ... Orca2.scfp
The origin for moment calculation is the CENTER OF MASS  = ( 0.000000,  0.000000  1.219711)

-------------
DIPOLE MOMENT
-------------
                                X             Y             Z
Electronic contribution:     -0.00000       0.00000      -1.25218
Nuclear contribution   :      0.00000       0.00000       0.00717
                        -----------------------------------------
Total Dipole Moment    :     -0.00000       0.00000      -1.24502
                        -----------------------------------------
Magnitude (a.u.)       :      1.24502
Magnitude (Debye)      :      3.16458



--------------------
Rotational spectrum 
--------------------
 
Rotational constants in cm-1:     0.000000     1.924337     1.924337 
Rotational constants in MHz :     0.000000 57690.170226 57690.170226 

 Dipole components along the rotational axes: 
x,y,z [a.u.] :    -1.245015     0.000000    -0.000000 
x,y,z [Debye]:    -3.164577     0.000000    -0.000000 

 

Timings for individual modules:

Sum of individual times         ...       12.852 sec (=   0.214 min)
GTO integral calculation        ...        1.125 sec (=   0.019 min)   8.8 %
SCF iterations                  ...       11.727 sec (=   0.195 min)  91.2 %
                             ****ORCA TERMINATED NORMALLY****
TOTAL RUN TIME: 0 days 0 hours 0 minutes 13 seconds 445 msec
