
                                 *****************
                                 * O   R   C   A *
                                 *****************

           --- An Ab Initio, DFT and Semiempirical electronic structure package ---

                  #######################################################
                  #                        -***-                        #
                  #          Department of theory and spectroscopy      #
                  #               Directorship: Frank Neese             #
                  #        Max Planck Institute fuer Kohlenforschung    #
                  #                Kaiser Wilhelm Platz 1               #
                  #                 D-45470 Muelheim/Ruhr               #
                  #                      Germany                        #
                  #                                                     #
                  #                  All rights reserved                #
                  #                        -***-                        #
                  #######################################################


                         Program Version 4.2.1 -  RELEASE  -


 With contributions from (in alphabetic order):
   Daniel Aravena         : Magnetic Suceptibility
   Michael Atanasov       : Ab Initio Ligand Field Theory (pilot matlab implementation)
   Alexander A. Auer      : GIAO ZORA, VPT2
   Ute Becker             : Parallelization
   Giovanni Bistoni       : ED, misc. LED, open-shell LED, HFLD
   Martin Brehm           : Molecular dynamics
   Dmytro Bykov           : SCF Hessian
   Vijay G. Chilkuri      : MRCI spin determinant printing, contributions to CSF-ICE
   Dipayan Datta          : RHF DLPNO-CCSD density
   Achintya Kumar Dutta   : EOM-CC, STEOM-CC
   Dmitry Ganyushin       : Spin-Orbit,Spin-Spin,Magnetic field MRCI
   Miquel Garcia          : C-PCM Hessian, Gaussian charge scheme
   Yang Guo               : DLPNO-NEVPT2, CIM, IAO-localization
   Andreas Hansen         : Spin unrestricted coupled pair/coupled cluster methods
   Benjamin Helmich-Paris : CASSCF linear response (MC-RPA)
   Lee Huntington         : MR-EOM, pCC
   Robert Izsak           : Overlap fitted RIJCOSX, COSX-SCS-MP3, EOM
   Christian Kollmar      : KDIIS, OOCD, Brueckner-CCSD(T), CCSD density
   Simone Kossmann        : Meta GGA functionals, TD-DFT gradient, OOMP2, MP2 Hessian
   Martin Krupicka        : AUTO-CI
   Lucas Lang             : DCDCAS
   Dagmar Lenk            : GEPOL surface, SMD
   Dimitrios Liakos       : Extrapolation schemes; Compound Job, initial MDCI parallelization
   Dimitrios Manganas     : Further ROCIS development; embedding schemes
   Dimitrios Pantazis     : SARC Basis sets
   Taras Petrenko         : DFT Hessian,TD-DFT gradient, ASA, ECA, R-Raman, ABS, FL, XAS/XES, NRVS
   Peter Pinski           : DLPNO-MP2, DLPNO-MP2 Gradient
   Christoph Reimann      : Effective Core Potentials
   Marius Retegan         : Local ZFS, SOC
   Christoph Riplinger    : Optimizer, TS searches, QM/MM, DLPNO-CCSD(T), (RO)-DLPNO pert. Triples
   Tobias Risthaus        : Range-separated hybrids, TD-DFT gradient, RPA, STAB
   Michael Roemelt        : Original ROCIS implementation
   Masaaki Saitow         : Open-shell DLPNO-CCSD energy and density
   Barbara Sandhoefer     : DKH picture change effects
   Avijit Sen             : IP-ROCIS
   Kantharuban Sivalingam : CASSCF convergence, NEVPT2, FIC-MRCI
   Bernardo de Souza      : ESD, SOC TD-DFT
   Georgi Stoychev        : AutoAux, RI-MP2 NMR
   Willem Van den Heuvel  : Paramagnetic NMR
   Boris Wezisla          : Elementary symmetry handling
   Frank Wennmohs         : Technical directorship


 We gratefully acknowledge several colleagues who have allowed us to
 interface, adapt or use parts of their codes:
   Stefan Grimme, W. Hujo, H. Kruse,             : VdW corrections, initial TS optimization,
                  C. Bannwarth                     DFT functionals, gCP, sTDA/sTD-DF
   Ed Valeev, F. Pavosevic, A. Kumar             : LibInt (2-el integral package), F12 methods
   Garnet Chan, S. Sharma, J. Yang, R. Olivares  : DMRG
   Ulf Ekstrom                                   : XCFun DFT Library
   Mihaly Kallay                                 : mrcc  (arbitrary order and MRCC methods)
   Andreas Klamt, Michael Diedenhofen            : otool_cosmo (COSMO solvation model)
   Jiri Pittner, Ondrej Demel                    : Mk-CCSD
   Frank Weinhold                                : gennbo (NPA and NBO analysis)
   Christopher J. Cramer and Donald G. Truhlar   : smd solvation model
   Lars Goerigk                                  : TD-DFT with DH, B97 family of functionals
   V. Asgeirsson, H. Jonsson                     : NEB implementation
   FAccTs GmbH                                   : IRC, NEB, NEB-TS, Multilevel, MM, QM/MM, CI optimization
   S Lehtola, MJT Oliveira, MAL Marques          : LibXC Library


 Your calculation uses the libint2 library for the computation of 2-el integrals
 For citations please refer to: http://libint.valeyev.net

 Your ORCA version has been built with support for libXC version: 4.2.3
 For citations please refer to: https://tddft.org/programs/libxc/

 This ORCA versions uses:
   CBLAS   interface :  Fast vector & matrix operations
   LAPACKE interface :  Fast linear algebra routines


----- Orbital basis set information -----
Your calculation utilizes the basis: def2-SVP
   F. Weigend and R. Ahlrichs, Phys. Chem. Chem. Phys. 7, 3297 (2005).

================================================================================
                                        WARNINGS
                       Please study these warnings very carefully!
================================================================================

INFO   : Found keyword 'PrintThermoChem'
  ===> : The value for Final Gibbs free enthalpy does not include the electronic energy.
       : Use G-E(el) and the individual components of the thermochemical correction instead.

INFO   : the flag for use of LIBINT has been found!

================================================================================
                                       INPUT FILE
================================================================================
NAME = Ga_acac3_belyp_rij_after_geo_opt_therm_at_diff_t.inp
|  1> # avogadro generated ORCA input file 
|  2> # computing thermodynamic functions at different T after you geo_opt with freq calculation has already finished 
|  3> # 
|  4> !PRINTTHERMOCHEM
|  5> %GEOM
|  6> 	INHESSNAME "..\Ga_acac3_belyp_rij_geo_opt.hess"
|  7> END
|  8> %FREQ TEMP 298, 723, 773
|  9> END
| 10> %PAL
| 11> 	NPROCS 8
| 12> END
| 13> * xyz 0 1
| 14>    C        0.61592       -2.64250       -1.11853
| 15>    C       -0.07572       -3.26341       -0.06103
| 16>    C       -0.73228       -2.56230        0.96864
| 17>    H       -0.10403       -4.35272       -0.03750
| 18>    C       -2.67317        0.83233       -1.07408
| 19>    C       -1.86012        2.07146        0.92188
| 20>    C       -2.83113        1.79635       -0.05980
| 21>    H       -3.76110        2.36384       -0.03246
| 22>    C        2.71912        0.75434        0.76551
| 23>    C        1.96262        1.92887       -1.29173
| 24>    C        2.91988        1.65860       -0.29504
| 25>    H        3.87466        2.18111       -0.34834
| 26>   Ga        0.00714        0.06220       -0.13656
| 27>    O       -1.64820        0.09385       -1.22855
| 28>    O       -0.73018        1.49304        1.01600
| 29>    O        0.72767       -1.38499       -1.28156
| 30>    O       -0.77868       -1.29497        1.07744
| 31>    O        1.66228        0.07101        0.95488
| 32>    O        0.80622        1.40106       -1.35920
| 33>    C        3.81312        0.53751        1.78518
| 34>    H        4.11493       -0.52282        1.77089
| 35>    H        4.69428        1.16908        1.60987
| 36>    H        3.41029        0.73813        2.79121
| 37>    C        2.28004        2.91639       -2.39007
| 38>    H        3.27954        3.36092       -2.29186
| 39>    H        2.19982        2.40622       -3.36397
| 40>    H        1.52103        3.71566       -2.38739
| 41>    C       -2.12622        3.12904        1.96748
| 42>    H       -3.11085        3.60300        1.85719
| 43>    H       -2.04827        2.67229        2.96760
| 44>    H       -1.33994        3.89951        1.90929
| 45>    C       -3.77741        0.61598       -2.08259
| 46>    H       -4.63507        1.28464       -1.92950
| 47>    H       -3.37153        0.76450       -3.09653
| 48>    H       -4.11580       -0.43184       -2.02809
| 49>    C        1.30201       -3.48800       -2.16595
| 50>    H        1.15628       -4.56561       -2.01108
| 51>    H        0.92451       -3.20462       -3.16192
| 52>    H        2.38119       -3.26197       -2.15983
| 53>    C       -1.45973       -3.32574        2.05078
| 54>    H       -1.35891       -4.41482        1.94975
| 55>    H       -1.07787       -3.00920        3.03494
| 56>    H       -2.52855       -3.05567        2.02389
| 57> *
| 58> 
| 59> 
| 60>                          ****END OF INPUT****
================================================================================

                       ****************************
                       * THERMOCHEMISTRY ANALYSIS *
                       ****************************


----------------------------------------------------------------------------
                           ORCA THERMOCHEMISTRY ANALYSIS
----------------------------------------------------------------------------

Retrieving Hessian from file   ... ..\Ga_acac3_belyp_rij_geo_opt.hess

Number of atoms                ... 43
IR-spectrum generation         ... on

-----------------------
VIBRATIONAL FREQUENCIES
-----------------------

Scaling factor for frequencies =  1.000000000  (already applied!)

   0:         0.00 cm**-1
   1:         0.00 cm**-1
   2:         0.00 cm**-1
   3:         0.00 cm**-1
   4:         0.00 cm**-1
   5:         0.00 cm**-1
   6:        22.47 cm**-1
   7:        22.89 cm**-1
   8:        31.55 cm**-1
   9:        48.40 cm**-1
  10:        48.47 cm**-1
  11:        50.75 cm**-1
  12:        84.74 cm**-1
  13:        84.99 cm**-1
  14:        85.45 cm**-1
  15:        99.28 cm**-1
  16:        99.56 cm**-1
  17:       100.84 cm**-1
  18:       163.41 cm**-1
  19:       164.18 cm**-1
  20:       164.30 cm**-1
  21:       166.01 cm**-1
  22:       166.72 cm**-1
  23:       170.95 cm**-1
  24:       180.75 cm**-1
  25:       200.53 cm**-1
  26:       201.14 cm**-1
  27:       227.98 cm**-1
  28:       231.23 cm**-1
  29:       232.12 cm**-1
  30:       262.47 cm**-1
  31:       263.02 cm**-1
  32:       263.19 cm**-1
  33:       284.72 cm**-1
  34:       290.44 cm**-1
  35:       291.31 cm**-1
  36:       416.49 cm**-1
  37:       416.65 cm**-1
  38:       429.12 cm**-1
  39:       449.25 cm**-1
  40:       449.58 cm**-1
  41:       451.17 cm**-1
  42:       570.92 cm**-1
  43:       571.22 cm**-1
  44:       572.79 cm**-1
  45:       574.48 cm**-1
  46:       574.65 cm**-1
  47:       579.99 cm**-1
  48:       677.38 cm**-1
  49:       678.72 cm**-1
  50:       679.40 cm**-1
  51:       679.83 cm**-1
  52:       680.22 cm**-1
  53:       681.15 cm**-1
  54:       796.90 cm**-1
  55:       797.34 cm**-1
  56:       797.55 cm**-1
  57:       955.45 cm**-1
  58:       955.49 cm**-1
  59:       959.35 cm**-1
  60:       959.93 cm**-1
  61:       960.07 cm**-1
  62:       960.74 cm**-1
  63:      1025.41 cm**-1
  64:      1025.52 cm**-1
  65:      1026.13 cm**-1
  66:      1036.13 cm**-1
  67:      1036.93 cm**-1
  68:      1036.95 cm**-1
  69:      1041.94 cm**-1
  70:      1042.10 cm**-1
  71:      1044.52 cm**-1
  72:      1044.58 cm**-1
  73:      1044.83 cm**-1
  74:      1046.37 cm**-1
  75:      1210.88 cm**-1
  76:      1211.07 cm**-1
  77:      1212.34 cm**-1
  78:      1301.23 cm**-1
  79:      1301.37 cm**-1
  80:      1306.32 cm**-1
  81:      1373.30 cm**-1
  82:      1373.55 cm**-1
  83:      1373.61 cm**-1
  84:      1379.81 cm**-1
  85:      1379.85 cm**-1
  86:      1380.16 cm**-1
  87:      1432.66 cm**-1
  88:      1432.75 cm**-1
  89:      1438.10 cm**-1
  90:      1441.55 cm**-1
  91:      1441.75 cm**-1
  92:      1441.98 cm**-1
  93:      1442.55 cm**-1
  94:      1442.59 cm**-1
  95:      1442.95 cm**-1
  96:      1453.42 cm**-1
  97:      1453.48 cm**-1
  98:      1454.32 cm**-1
  99:      1496.96 cm**-1
 100:      1497.18 cm**-1
 101:      1527.02 cm**-1
 102:      1573.29 cm**-1
 103:      1573.31 cm**-1
 104:      1576.47 cm**-1
 105:      1650.32 cm**-1
 106:      1650.48 cm**-1
 107:      1685.64 cm**-1
 108:      3036.18 cm**-1
 109:      3036.37 cm**-1
 110:      3036.78 cm**-1
 111:      3036.85 cm**-1
 112:      3036.90 cm**-1
 113:      3037.01 cm**-1
 114:      3110.70 cm**-1
 115:      3110.98 cm**-1
 116:      3111.09 cm**-1
 117:      3111.31 cm**-1
 118:      3111.45 cm**-1
 119:      3111.66 cm**-1
 120:      3148.17 cm**-1
 121:      3148.41 cm**-1
 122:      3148.57 cm**-1
 123:      3148.64 cm**-1
 124:      3149.19 cm**-1
 125:      3149.48 cm**-1
 126:      3209.56 cm**-1
 127:      3210.63 cm**-1
 128:      3211.11 cm**-1


------------
NORMAL MODES
------------

These modes are the Cartesian displacements weighted by the diagonal matrix
M(i,i)=1/sqrt(m[i]) where m[i] is the mass of the displaced atom
Thus, these vectors are normalized but *not* orthogonal

                  0          1          2          3          4          5    
      0       0.000000   0.000000   0.000000   0.000000   0.000000   0.000000
      1       0.000000   0.000000   0.000000   0.000000   0.000000   0.000000
      2       0.000000   0.000000   0.000000   0.000000   0.000000   0.000000
      3       0.000000   0.000000   0.000000   0.000000   0.000000   0.000000
      4       0.000000   0.000000   0.000000   0.000000   0.000000   0.000000
      5       0.000000   0.000000   0.000000   0.000000   0.000000   0.000000
      6       0.000000   0.000000   0.000000   0.000000   0.000000   0.000000
      7       0.000000   0.000000   0.000000   0.000000   0.000000   0.000000
      8       0.000000   0.000000   0.000000   0.000000   0.000000   0.000000
      9       0.000000   0.000000   0.000000   0.000000   0.000000   0.000000
     10       0.000000   0.000000   0.000000   0.000000   0.000000   0.000000
     11       0.000000   0.000000   0.000000   0.000000   0.000000   0.000000
     12       0.000000   0.000000   0.000000   0.000000   0.000000   0.000000
     13       0.000000   0.000000   0.000000   0.000000   0.000000   0.000000
     14       0.000000   0.000000   0.000000   0.000000   0.000000   0.000000
     15       0.000000   0.000000   0.000000   0.000000   0.000000   0.000000
     16       0.000000   0.000000   0.000000   0.000000   0.000000   0.000000
     17       0.000000   0.000000   0.000000   0.000000   0.000000   0.000000
     18       0.000000   0.000000   0.000000   0.000000   0.000000   0.000000
     19       0.000000   0.000000   0.000000   0.000000   0.000000   0.000000
     20       0.000000   0.000000   0.000000   0.000000   0.000000   0.000000
     21       0.000000   0.000000   0.000000   0.000000   0.000000   0.000000
     22       0.000000   0.000000   0.000000   0.000000   0.000000   0.000000
     23       0.000000   0.000000   0.000000   0.000000   0.000000   0.000000
     24       0.000000   0.000000   0.000000   0.000000   0.000000   0.000000
     25       0.000000   0.000000   0.000000   0.000000   0.000000   0.000000
     26       0.000000   0.000000   0.000000   0.000000   0.000000   0.000000
     27       0.000000   0.000000   0.000000   0.000000   0.000000   0.000000
     28       0.000000   0.000000   0.000000   0.000000   0.000000   0.000000
     29       0.000000   0.000000   0.000000   0.000000   0.000000   0.000000
     30       0.000000   0.000000   0.000000   0.000000   0.000000   0.000000
     31       0.000000   0.000000   0.000000   0.000000   0.000000   0.000000
     32       0.000000   0.000000   0.000000   0.000000   0.000000   0.000000
     33       0.000000   0.000000   0.000000   0.000000   0.000000   0.000000
     34       0.000000   0.000000   0.000000   0.000000   0.000000   0.000000
     35       0.000000   0.000000   0.000000   0.000000   0.000000   0.000000
     36       0.000000   0.000000   0.000000   0.000000   0.000000   0.000000
     37       0.000000   0.000000   0.000000   0.000000   0.000000   0.000000
     38       0.000000   0.000000   0.000000   0.000000   0.000000   0.000000
     39       0.000000   0.000000   0.000000   0.000000   0.000000   0.000000
     40       0.000000   0.000000   0.000000   0.000000   0.000000   0.000000
     41       0.000000   0.000000   0.000000   0.000000   0.000000   0.000000
     42       0.000000   0.000000   0.000000   0.000000   0.000000   0.000000
     43       0.000000   0.000000   0.000000   0.000000   0.000000   0.000000
     44       0.000000   0.000000   0.000000   0.000000   0.000000   0.000000
     45       0.000000   0.000000   0.000000   0.000000   0.000000   0.000000
     46       0.000000   0.000000   0.000000   0.000000   0.000000   0.000000
     47       0.000000   0.000000   0.000000   0.000000   0.000000   0.000000
     48       0.000000   0.000000   0.000000   0.000000   0.000000   0.000000
     49       0.000000   0.000000   0.000000   0.000000   0.000000   0.000000
     50       0.000000   0.000000   0.000000   0.000000   0.000000   0.000000
     51       0.000000   0.000000   0.000000   0.000000   0.000000   0.000000
     52       0.000000   0.000000   0.000000   0.000000   0.000000   0.000000
     53       0.000000   0.000000   0.000000   0.000000   0.000000   0.000000
     54       0.000000   0.000000   0.000000   0.000000   0.000000   0.000000
     55       0.000000   0.000000   0.000000   0.000000   0.000000   0.000000
     56       0.000000   0.000000   0.000000   0.000000   0.000000   0.000000
     57       0.000000   0.000000   0.000000   0.000000   0.000000   0.000000
     58       0.000000   0.000000   0.000000   0.000000   0.000000   0.000000
     59       0.000000   0.000000   0.000000   0.000000   0.000000   0.000000
     60       0.000000   0.000000   0.000000   0.000000   0.000000   0.000000
     61       0.000000   0.000000   0.000000   0.000000   0.000000   0.000000
     62       0.000000   0.000000   0.000000   0.000000   0.000000   0.000000
     63       0.000000   0.000000   0.000000   0.000000   0.000000   0.000000
     64       0.000000   0.000000   0.000000   0.000000   0.000000   0.000000
     65       0.000000   0.000000   0.000000   0.000000   0.000000   0.000000
     66       0.000000   0.000000   0.000000   0.000000   0.000000   0.000000
     67       0.000000   0.000000   0.000000   0.000000   0.000000   0.000000
     68       0.000000   0.000000   0.000000   0.000000   0.000000   0.000000
     69       0.000000   0.000000   0.000000   0.000000   0.000000   0.000000
     70       0.000000   0.000000   0.000000   0.000000   0.000000   0.000000
     71       0.000000   0.000000   0.000000   0.000000   0.000000   0.000000
     72       0.000000   0.000000   0.000000   0.000000   0.000000   0.000000
     73       0.000000   0.000000   0.000000   0.000000   0.000000   0.000000
     74       0.000000   0.000000   0.000000   0.000000   0.000000   0.000000
     75       0.000000   0.000000   0.000000   0.000000   0.000000   0.000000
     76       0.000000   0.000000   0.000000   0.000000   0.000000   0.000000
     77       0.000000   0.000000   0.000000   0.000000   0.000000   0.000000
     78       0.000000   0.000000   0.000000   0.000000   0.000000   0.000000
     79       0.000000   0.000000   0.000000   0.000000   0.000000   0.000000
     80       0.000000   0.000000   0.000000   0.000000   0.000000   0.000000
     81       0.000000   0.000000   0.000000   0.000000   0.000000   0.000000
     82       0.000000   0.000000   0.000000   0.000000   0.000000   0.000000
     83       0.000000   0.000000   0.000000   0.000000   0.000000   0.000000
     84       0.000000   0.000000   0.000000   0.000000   0.000000   0.000000
     85       0.000000   0.000000   0.000000   0.000000   0.000000   0.000000
     86       0.000000   0.000000   0.000000   0.000000   0.000000   0.000000
     87       0.000000   0.000000   0.000000   0.000000   0.000000   0.000000
     88       0.000000   0.000000   0.000000   0.000000   0.000000   0.000000
     89       0.000000   0.000000   0.000000   0.000000   0.000000   0.000000
     90       0.000000   0.000000   0.000000   0.000000   0.000000   0.000000
     91       0.000000   0.000000   0.000000   0.000000   0.000000   0.000000
     92       0.000000   0.000000   0.000000   0.000000   0.000000   0.000000
     93       0.000000   0.000000   0.000000   0.000000   0.000000   0.000000
     94       0.000000   0.000000   0.000000   0.000000   0.000000   0.000000
     95       0.000000   0.000000   0.000000   0.000000   0.000000   0.000000
     96       0.000000   0.000000   0.000000   0.000000   0.000000   0.000000
     97       0.000000   0.000000   0.000000   0.000000   0.000000   0.000000
     98       0.000000   0.000000   0.000000   0.000000   0.000000   0.000000
     99       0.000000   0.000000   0.000000   0.000000   0.000000   0.000000
    100       0.000000   0.000000   0.000000   0.000000   0.000000   0.000000
    101       0.000000   0.000000   0.000000   0.000000   0.000000   0.000000
    102       0.000000   0.000000   0.000000   0.000000   0.000000   0.000000
    103       0.000000   0.000000   0.000000   0.000000   0.000000   0.000000
    104       0.000000   0.000000   0.000000   0.000000   0.000000   0.000000
    105       0.000000   0.000000   0.000000   0.000000   0.000000   0.000000
    106       0.000000   0.000000   0.000000   0.000000   0.000000   0.000000
    107       0.000000   0.000000   0.000000   0.000000   0.000000   0.000000
    108       0.000000   0.000000   0.000000   0.000000   0.000000   0.000000
    109       0.000000   0.000000   0.000000   0.000000   0.000000   0.000000
    110       0.000000   0.000000   0.000000   0.000000   0.000000   0.000000
    111       0.000000   0.000000   0.000000   0.000000   0.000000   0.000000
    112       0.000000   0.000000   0.000000   0.000000   0.000000   0.000000
    113       0.000000   0.000000   0.000000   0.000000   0.000000   0.000000
    114       0.000000   0.000000   0.000000   0.000000   0.000000   0.000000
    115       0.000000   0.000000   0.000000   0.000000   0.000000   0.000000
    116       0.000000   0.000000   0.000000   0.000000   0.000000   0.000000
    117       0.000000   0.000000   0.000000   0.000000   0.000000   0.000000
    118       0.000000   0.000000   0.000000   0.000000   0.000000   0.000000
    119       0.000000   0.000000   0.000000   0.000000   0.000000   0.000000
    120       0.000000   0.000000   0.000000   0.000000   0.000000   0.000000
    121       0.000000   0.000000   0.000000   0.000000   0.000000   0.000000
    122       0.000000   0.000000   0.000000   0.000000   0.000000   0.000000
    123       0.000000   0.000000   0.000000   0.000000   0.000000   0.000000
    124       0.000000   0.000000   0.000000   0.000000   0.000000   0.000000
    125       0.000000   0.000000   0.000000   0.000000   0.000000   0.000000
    126       0.000000   0.000000   0.000000   0.000000   0.000000   0.000000
    127       0.000000   0.000000   0.000000   0.000000   0.000000   0.000000
    128       0.000000   0.000000   0.000000   0.000000   0.000000   0.000000
                  6          7          8          9         10         11    
      0       0.051489  -0.086282  -0.017252  -0.019229   0.064253   0.050039
      1       0.062985  -0.009290   0.039986  -0.032696  -0.018838   0.005080
      2       0.022305  -0.029790  -0.037426   0.059605   0.030084   0.030729
      3       0.042954  -0.172214  -0.075044  -0.046946   0.008325  -0.000046
      4       0.054005   0.017676  -0.003992  -0.002542  -0.025697   0.006818
      5       0.011574  -0.070105  -0.100880   0.059667  -0.011065  -0.000796
      6      -0.001263  -0.099124  -0.016837  -0.041126  -0.053965  -0.049422
      7       0.045403   0.041802  -0.047948   0.027153  -0.028650   0.005540
      8      -0.010613  -0.039890  -0.034028   0.042462  -0.049090  -0.031200
      9       0.068684  -0.285279  -0.152573  -0.071843   0.013448  -0.000305
     10       0.053477   0.019605  -0.004043  -0.001575  -0.025867   0.006791
     11       0.018787  -0.116832  -0.196310   0.074125  -0.013459  -0.001340
     12      -0.041479   0.003965   0.045470   0.050099   0.008150  -0.019940
     13      -0.028848  -0.102935  -0.015319   0.021076   0.056086  -0.042782
     14       0.015945   0.044508  -0.030944  -0.060067   0.033628   0.033503
     15      -0.094169  -0.003429  -0.026203  -0.024667   0.040679   0.026773
     16      -0.042316  -0.053969   0.034757  -0.062901  -0.008849   0.037585
     17       0.045358   0.017542  -0.032670   0.025598   0.061378  -0.032843
     18      -0.095863  -0.029698   0.035696   0.011628   0.033149   0.004810
     19      -0.082556  -0.129418   0.055330  -0.025701   0.036870  -0.003414
     20       0.058403   0.064511  -0.099366  -0.021349   0.056513   0.000138
     21      -0.135670  -0.072366   0.069573   0.007825   0.046079   0.004657
     22      -0.149595  -0.201499   0.115556  -0.031564   0.057373  -0.003641
     23       0.095299   0.109738  -0.197535  -0.028006   0.071218   0.000100
     24       0.034447   0.028744   0.040915   0.043102  -0.024532   0.018324
     25      -0.077079   0.074606   0.020756  -0.003021   0.060841  -0.045929
     26      -0.034593   0.026201  -0.028524  -0.067791  -0.010585  -0.031943
     27       0.077148   0.043650  -0.038267  -0.034844  -0.029321  -0.025409
     28      -0.072988   0.023259  -0.029510   0.055746  -0.032726   0.039261
     29      -0.047914  -0.008054  -0.027911  -0.002947  -0.063953   0.030273
     30       0.093874   0.025630   0.021108   0.000480  -0.034658  -0.004395
     31      -0.148968   0.069926  -0.046320   0.035343   0.025696  -0.005263
     32      -0.084574   0.021762  -0.089278  -0.043233  -0.043197  -0.001809
     33       0.147934   0.010429   0.046276  -0.007332  -0.045048  -0.003672
     34      -0.253758   0.099431  -0.101429   0.048330   0.043693  -0.006695
     35      -0.143244   0.038982  -0.178883  -0.055457  -0.053322  -0.003129
     36      -0.013863   0.059271   0.006985   0.017083  -0.003749  -0.000230
     37       0.059338   0.013861  -0.001395  -0.003838  -0.017638   0.000568
     38       0.005150  -0.005561   0.103077   0.001487  -0.000832   0.000582
     39       0.008023   0.054799   0.010883   0.043340  -0.015641  -0.011226
     40       0.048735  -0.021204  -0.086475   0.007610   0.025835  -0.027418
     41      -0.027163  -0.007346   0.084670  -0.037702   0.018331   0.017376
     42      -0.049830   0.045526  -0.069905  -0.009462   0.031789   0.018031
     43       0.036869   0.033185  -0.032731  -0.033820  -0.029437   0.023007
     44       0.002501  -0.036183   0.084887   0.020987   0.036156  -0.016541
     45       0.023049   0.046638   0.072535   0.006535   0.032784   0.031258
     46       0.064265  -0.014030   0.046160  -0.037523  -0.017065   0.004830
     47       0.014462   0.024630   0.076030   0.037137   0.020818   0.015498
     48      -0.033311   0.033009   0.072534  -0.005110  -0.035132  -0.030137
     49       0.044801   0.041900  -0.053784   0.029714  -0.029060   0.004899
     50      -0.019254   0.014255   0.078998   0.024640  -0.033092  -0.014607
     51      -0.031780   0.046166   0.016718   0.045873  -0.000575   0.009468
     52       0.044398   0.041852   0.086492  -0.000775   0.024977  -0.027493
     53       0.034164   0.006744   0.077631  -0.041664  -0.005685  -0.014649
     54       0.016495   0.061337  -0.071758  -0.019016  -0.026615  -0.017856
     55       0.050848  -0.013269   0.031500   0.020384  -0.040742   0.024349
     56       0.020266  -0.028853   0.079447   0.004011  -0.040331   0.016038
     57       0.043962   0.010694   0.093621   0.093309  -0.039975   0.059524
     58      -0.140140   0.119532   0.020613  -0.053369   0.151202  -0.120677
     59      -0.058112   0.054882  -0.085170  -0.132379   0.025272  -0.091924
     60      -0.062067   0.044076   0.053336   0.122808  -0.030816   0.075064
     61      -0.170867   0.128796   0.008726  -0.043981   0.152877  -0.115176
     62      -0.019776   0.073636  -0.061857  -0.234543   0.119580  -0.203495
     63       0.101524  -0.004834   0.106921   0.069053  -0.043349   0.044880
     64      -0.235789   0.145166  -0.019708  -0.016907   0.146604  -0.094277
     65      -0.113365   0.069258  -0.163540  -0.122991  -0.008099  -0.070479
     66       0.094894  -0.020047   0.161761   0.134499  -0.061278   0.097094
     67      -0.055040   0.117964   0.074804  -0.148004   0.231322  -0.220853
     68      -0.054728   0.042891  -0.068836  -0.097434   0.001137  -0.057368
     69       0.131824   0.042698  -0.068419  -0.101866  -0.027041  -0.061530
     70      -0.134101   0.012117  -0.084372   0.125341  -0.096210   0.115910
     71      -0.086843  -0.018224  -0.086059   0.040288  -0.120470   0.088688
     72       0.180393   0.028015  -0.046897  -0.093552  -0.046733  -0.045481
     73      -0.231874   0.041520  -0.115621   0.114657  -0.052694   0.084288
     74      -0.138817  -0.001936  -0.163573   0.003978  -0.116647   0.068143
     75       0.041838   0.080411  -0.142764  -0.173112   0.029900  -0.133151
     76      -0.152710  -0.007718  -0.121986   0.193960  -0.170576   0.198443
     77      -0.069764  -0.010911  -0.060416   0.010627  -0.086552   0.051802
     78       0.212070   0.020510  -0.040678  -0.096458  -0.058173  -0.040127
     79      -0.058010  -0.008829  -0.058264   0.130635  -0.125934   0.136437
     80      -0.078123  -0.051049  -0.074603   0.148935  -0.207712   0.199466
     81      -0.146040  -0.032917  -0.046621  -0.090640   0.063259   0.064978
     82      -0.091080  -0.070241   0.092531  -0.144593  -0.040659   0.108460
     83       0.081203   0.026499  -0.096394   0.091497   0.099384  -0.094739
     84      -0.181864  -0.071761  -0.018032  -0.077979   0.078490   0.051147
     85      -0.157486  -0.141057   0.132023  -0.126023  -0.006614   0.083995
     86       0.115777   0.068943  -0.181884   0.058257   0.109516  -0.076246
     87      -0.092317   0.044009  -0.131061  -0.174415   0.039086   0.131813
     88      -0.114582  -0.062354   0.134517  -0.232205  -0.083428   0.187141
     89       0.066299   0.024161  -0.070814   0.058471   0.081887  -0.064408
     90      -0.201711  -0.090698  -0.008608  -0.076693   0.087903   0.047047
     91      -0.033908  -0.014093   0.055126  -0.149750  -0.063089   0.119361
     92       0.086430  -0.010143  -0.080669   0.219813   0.138228  -0.199768
     93      -0.036808  -0.018341   0.099181   0.106303   0.004901  -0.063467
     94      -0.060413  -0.170943  -0.012089   0.096715   0.119522  -0.112064
     95       0.017626   0.083249  -0.090494  -0.137879   0.023515   0.095919
     96      -0.079666  -0.062073   0.118860   0.083427   0.017755  -0.047692
     97      -0.123650  -0.236475   0.032401   0.062342   0.129785  -0.086794
     98       0.053654   0.124526  -0.174489  -0.115979   0.050583   0.073949
     99      -0.056560  -0.067954   0.169833   0.157869   0.009566  -0.104354
    100       0.008656  -0.127450  -0.073559   0.214937   0.156958  -0.211096
    101       0.019843   0.069767  -0.071369  -0.100437   0.030699   0.065488
    102       0.033341   0.061262   0.050436   0.129868  -0.014780  -0.078825
    103      -0.085170  -0.196738   0.005041   0.082811   0.123571  -0.101808
    104      -0.022665   0.081985  -0.066307  -0.268349  -0.023841   0.205821
    105       0.096142  -0.146543  -0.058182  -0.017169   0.173862   0.137771
    106       0.071553  -0.036294   0.084747  -0.066353  -0.010644   0.002368
    107       0.044404  -0.047348  -0.100451   0.088158   0.095352   0.090302
    108       0.120415  -0.253379  -0.111750  -0.051500   0.142465   0.103965
    109       0.069073  -0.028024   0.080243  -0.060005  -0.011212   0.003545
    110       0.050065  -0.090337  -0.182147   0.099932   0.062054   0.066776
    111       0.110879  -0.099533  -0.045290   0.017188   0.300815   0.248046
    112       0.053430   0.037175   0.178087  -0.069481   0.011703   0.019391
    113       0.033647  -0.044293  -0.078947   0.074352   0.054127   0.053817
    114       0.090212  -0.124960  -0.047294  -0.010652   0.177091   0.142048
    115       0.099304  -0.140352   0.031597  -0.097650  -0.027419  -0.019120
    116       0.066197  -0.017355  -0.084282   0.113328   0.232459   0.206055
    117      -0.014295  -0.173479  -0.056929  -0.078786  -0.154737  -0.136364
    118       0.034948   0.070926  -0.092673   0.063641  -0.031056   0.003844
    119      -0.026613  -0.069133  -0.092625   0.042876  -0.118615  -0.090762
    120       0.011832  -0.281822  -0.110336  -0.101486  -0.116164  -0.105688
    121       0.036594   0.064896  -0.090067   0.059430  -0.029947   0.004638
    122      -0.018384  -0.112316  -0.173953   0.065338  -0.092423  -0.068936
    123      -0.047991  -0.141092  -0.045610  -0.091872  -0.280269  -0.242732
    124       0.048031  -0.006176  -0.184328   0.074051  -0.005357   0.024606
    125      -0.017732  -0.056910  -0.067707   0.044523  -0.078680  -0.056616
    126      -0.019372  -0.146710  -0.043895  -0.072286  -0.159650  -0.140064
    127       0.011808   0.178196  -0.038908   0.086939  -0.061720  -0.020268
    128      -0.057081  -0.057121  -0.076779   0.015680  -0.249962  -0.202321
                 12         13         14         15         16         17    
      0      -0.001156   0.016522  -0.000764   0.016836   0.010250   0.014150
      1      -0.004835  -0.000346   0.001283  -0.002363  -0.003229   0.002090
      2      -0.000209   0.013506   0.000048   0.008282   0.010779   0.007858
      3       0.000056   0.055976  -0.001458   0.001274  -0.001223   0.000616
      4      -0.003042  -0.000416   0.003214  -0.003934  -0.002257   0.002498
      5       0.001630   0.038712   0.000738  -0.002917   0.004045  -0.000562
      6      -0.000187   0.015754  -0.001495  -0.012665  -0.015206  -0.012846
      7      -0.001256   0.000362   0.005078  -0.004021  -0.000443   0.001901
      8       0.000255   0.013072  -0.000559  -0.011779  -0.006355  -0.008651
      9      -0.000131   0.074102  -0.002182   0.000479  -0.000024   0.000577
     10      -0.002997  -0.000638   0.003259  -0.003879  -0.002190   0.002542
     11       0.003306   0.050946   0.002152  -0.004376   0.005986  -0.000843
     12       0.001654   0.003346   0.008454  -0.000848   0.011195  -0.006230
     13      -0.000438  -0.003751   0.014169   0.003553   0.012177  -0.013642
     14      -0.000087   0.000699  -0.013885   0.003211  -0.012512   0.011131
     15       0.004977   0.001057   0.007683   0.003434  -0.005155   0.009546
     16      -0.001384  -0.001382   0.012833   0.002860  -0.016004   0.012802
     17      -0.000803   0.000168  -0.012650   0.001723   0.012799  -0.010849
     18       0.003441   0.002062   0.027416   0.000752   0.003275   0.002278
     19      -0.000791  -0.002764   0.046357   0.002431  -0.002900  -0.000328
     20       0.000534  -0.000451  -0.041443   0.004699   0.000829  -0.000174
     21       0.003751   0.001648   0.036235   0.000397   0.003062   0.002385
     22      -0.000339  -0.003384   0.061480   0.001720  -0.003194  -0.000200
     23       0.001863  -0.001544  -0.054585   0.007327   0.001143  -0.000171
     24       0.007806   0.003377   0.001736  -0.010489   0.005152   0.002950
     25      -0.014990   0.004047   0.000362   0.015452  -0.004137  -0.011501
     26      -0.012743   0.000543  -0.000308   0.012020  -0.009050  -0.007249
     27       0.007541   0.000832   0.005110   0.004727  -0.006542  -0.007535
     28      -0.014300   0.001762   0.001191  -0.017570   0.011034   0.009351
     29      -0.012142   0.000153  -0.000995  -0.013243   0.004250   0.007408
     30       0.025487   0.001515   0.003646  -0.002704  -0.000339  -0.003181
     31      -0.049542   0.003917   0.000546  -0.002634   0.003109  -0.000766
     32      -0.038834   0.000068   0.000215  -0.002402  -0.003899   0.000820
     33       0.033575   0.000938   0.004046  -0.002240  -0.000183  -0.003407
     34      -0.065699   0.004876  -0.000073  -0.003533   0.002569  -0.000352
     35      -0.051177  -0.000830   0.001417  -0.003621  -0.006086   0.001117
     36       0.002029   0.004354   0.002091  -0.000898   0.000962  -0.000230
     37      -0.003565   0.000073   0.003415  -0.001051  -0.000877  -0.000136
     38      -0.003842   0.003259  -0.004149  -0.000400   0.000490   0.000162
     39       0.001105   0.003893  -0.000433  -0.000882   0.010174  -0.003965
     40      -0.000842  -0.003061  -0.000765   0.004128   0.011128  -0.009640
     41      -0.002112   0.002254  -0.000968  -0.000799  -0.013108   0.006457
     42       0.004521   0.001480  -0.000960   0.003724  -0.004164   0.006966
     43      -0.002159  -0.000380  -0.002045   0.003000  -0.014074   0.008552
     44      -0.002400   0.001722   0.000337  -0.002577   0.012512  -0.006268
     45      -0.000730  -0.001620   0.000199   0.015686   0.007055   0.009086
     46      -0.004971   0.000013   0.000984  -0.001956  -0.003337   0.001988
     47      -0.002253   0.001421  -0.001995   0.010747   0.006876   0.003842
     48       0.000157  -0.002271  -0.000528  -0.010324  -0.014037  -0.007904
     49      -0.001093   0.000393   0.005103  -0.003941  -0.000182   0.001740
     50      -0.002045   0.001279  -0.002462  -0.009635  -0.008813  -0.003739
     51      -0.000523   0.004107   0.001091  -0.009258   0.004427   0.001195
     52       0.001157   0.003027   0.000905   0.014294  -0.002236  -0.007862
     53      -0.000536   0.001981  -0.002255   0.013219  -0.004777  -0.003314
     54      -0.000324   0.001392   0.004546   0.003033  -0.005852  -0.005134
     55       0.001431   0.000443   0.002181  -0.014359   0.009562   0.004934
     56       0.000079   0.001530  -0.002403  -0.010602   0.006951   0.002456
     57      -0.025080   0.005146  -0.000007  -0.005977   0.006057   0.003696
     58       0.045876   0.004777  -0.000437   0.013836  -0.001767  -0.013363
     59       0.035104  -0.001281   0.001400   0.007205  -0.009703  -0.008676
     60      -0.276555   0.012758  -0.002018   0.213328  -0.104480  -0.134568
     61      -0.027985   0.006997  -0.001020   0.077395  -0.033819  -0.053402
     62       0.374476  -0.009190   0.003224  -0.222894   0.106867   0.131342
     63       0.113214   0.000673   0.001385  -0.122142   0.064054   0.076409
     64      -0.202604   0.012056  -0.002254   0.221189  -0.106613  -0.143732
     65      -0.164113   0.002456   0.001851   0.169628  -0.095518  -0.112384
     66       0.030900   0.004227  -0.001025  -0.080838   0.047201   0.054777
     67       0.463429  -0.005428   0.001658  -0.295032   0.155580   0.177798
     68      -0.023242   0.000317   0.000590   0.036674  -0.023525  -0.025019
     69      -0.024391  -0.000349   0.007688   0.000120  -0.007943  -0.005976
     70       0.047694  -0.000227   0.000388  -0.011259   0.006980   0.009816
     71       0.034349  -0.001992  -0.000882  -0.008921   0.000196   0.008294
     72       0.100613  -0.003761   0.007978   0.113933  -0.068495  -0.077958
     73      -0.193750   0.006752  -0.000601  -0.230762   0.124561   0.148502
     74      -0.146236   0.001180   0.000601  -0.174688   0.084857   0.113706
     75      -0.394847   0.008333   0.008769  -0.319978   0.159573   0.194881
     76       0.202238  -0.004807   0.000032   0.083024  -0.044077  -0.045262
     77      -0.013823  -0.000366  -0.000787  -0.029814   0.012011   0.019282
     78       0.169361  -0.005894   0.008383   0.179946  -0.104234  -0.119754
     79       0.233592  -0.005542   0.001038   0.161504  -0.085535  -0.099469
     80       0.336531  -0.009270  -0.002428   0.212647  -0.116042  -0.126778
     81       0.007529  -0.000840  -0.026214   0.006594  -0.002080   0.008271
     82      -0.000798  -0.000921  -0.045722   0.001103  -0.008843   0.011401
     83      -0.000649  -0.000799   0.037819   0.004321   0.006460  -0.009873
     84       0.007687  -0.001116   0.105625   0.013717  -0.115795   0.112775
     85      -0.000064  -0.001802   0.182545   0.014261  -0.205891   0.192252
     86       0.001059  -0.002114  -0.158450  -0.002813   0.174997  -0.165714
     87       0.009045  -0.001496  -0.404185  -0.010139   0.304649  -0.271718
     88      -0.000501  -0.000203  -0.190428  -0.005615   0.072930  -0.058103
     89      -0.000633  -0.000420   0.003436   0.002685   0.017894  -0.017980
     90       0.007898  -0.001405   0.167543   0.017641  -0.171842   0.164248
     91      -0.001285  -0.000322  -0.222905  -0.009382   0.150567  -0.135465
     92      -0.002341  -0.000490   0.349516   0.017120  -0.212002   0.184920
     93      -0.000040   0.004071  -0.026618  -0.003140   0.006815  -0.006278
     94       0.000456  -0.006058  -0.043101   0.005928   0.008695  -0.013610
     95       0.001581   0.000311   0.036524   0.005214  -0.007221   0.011406
     96       0.001112   0.002952   0.118656  -0.006824   0.122624  -0.112459
     97       0.001757  -0.007269   0.190877  -0.000995   0.194615  -0.184558
     98       0.002353  -0.000648  -0.170913   0.014748  -0.169954   0.162673
     99      -0.001285   0.004347   0.013988  -0.007926   0.067188  -0.066422
    100      -0.000905  -0.006099  -0.462268   0.018948  -0.289224   0.256807
    101       0.000894   0.000409  -0.006144   0.005129  -0.024666   0.025109
    102      -0.001505   0.005536  -0.272193   0.004135  -0.196872   0.181544
    103       0.000985  -0.006510   0.051293   0.003161   0.083905  -0.082692
    104       0.002860   0.000800   0.371420  -0.004078   0.210786  -0.183621
    105      -0.004532  -0.052544  -0.000987   0.011869   0.006518   0.014871
    106      -0.006755   0.001672  -0.000894   0.001257  -0.004160   0.002604
    107      -0.000774  -0.033108   0.001669   0.002299   0.009267   0.008092
    108       0.001045   0.226381  -0.002973   0.209763   0.174150   0.190813
    109      -0.006626  -0.008680  -0.000489  -0.006656  -0.010231  -0.004066
    110       0.005328   0.156433   0.002612   0.132793   0.124132   0.126593
    111      -0.012989  -0.386903   0.000730  -0.186659  -0.161080  -0.156363
    112      -0.013303  -0.236119  -0.001245  -0.171401  -0.154543  -0.153983
    113       0.000512   0.023510   0.000929   0.026624   0.028489   0.026875
    114      -0.005606  -0.106584  -0.000592  -0.028118  -0.027321  -0.020767
    115      -0.001670   0.258125  -0.002763   0.189660   0.155360   0.170567
    116      -0.009659  -0.358378   0.002771  -0.185268  -0.149767  -0.153307
    117      -0.001819  -0.053907  -0.002947  -0.007651  -0.012236  -0.013685
    118       0.000836  -0.000873   0.007328  -0.003399   0.003660   0.002048
    119       0.000647  -0.034323   0.000142  -0.008229  -0.001662  -0.009338
    120       0.002857   0.223907  -0.004934  -0.203713  -0.183730  -0.189807
    121       0.000765   0.006993   0.007032  -0.009021  -0.001629  -0.002999
    122       0.006024   0.156178   0.001316  -0.141790  -0.114574  -0.129324
    123      -0.007716  -0.378330  -0.002374   0.181921   0.152204   0.151137
    124       0.007041   0.252126   0.007585  -0.186385  -0.152928  -0.162788
    125       0.000892   0.007708  -0.000153  -0.021129  -0.013531  -0.018683
    126      -0.002862  -0.116352  -0.002481   0.038600   0.028305   0.028045
    127      -0.003755  -0.270678   0.009150   0.191193   0.173961   0.177104
    128      -0.005645  -0.347485  -0.000100   0.169533   0.151461   0.144336
                 18         19         20         21         22         23    
      0      -0.035997  -0.035429  -0.034307   0.062999  -0.040757   0.069313
      1      -0.007581   0.003057  -0.000471  -0.016358   0.064624  -0.032164
      2      -0.019409  -0.023745  -0.019623   0.008849  -0.048522   0.034889
      3      -0.165510  -0.136971  -0.104905  -0.008695  -0.016158   0.045871
      4      -0.001128   0.003964  -0.001188  -0.016299   0.078651   0.000654
      5      -0.102486  -0.089894  -0.066288  -0.039766  -0.022171   0.032163
      6      -0.039163  -0.037934  -0.032227   0.038624   0.060204   0.072554
      7       0.003190   0.001656  -0.002941  -0.012961   0.065991   0.032156
      8      -0.022852  -0.024742  -0.018862  -0.010967   0.037727   0.034633
      9      -0.214966  -0.165036  -0.118210  -0.090499  -0.039108  -0.050779
     10      -0.000449   0.004283  -0.001063  -0.015168   0.078839   0.002427
     11      -0.130279  -0.108556  -0.076143  -0.086901  -0.034836  -0.002034
     12       0.012254  -0.026261   0.012320  -0.030843  -0.062028  -0.060078
     13       0.028167  -0.043061   0.005808   0.027766  -0.047254  -0.038580
     14      -0.020394   0.037790  -0.011131   0.026301   0.035187   0.041476
     15       0.020366  -0.023369   0.010115   0.006175  -0.024666  -0.009404
     16       0.018795  -0.041499   0.004907   0.092364   0.016711  -0.070407
     17      -0.017306   0.035374  -0.007411  -0.043554  -0.029496   0.039789
     18       0.070188  -0.090633   0.027558  -0.028339  -0.024720  -0.018076
     19       0.114786  -0.154414   0.030701   0.050461   0.028466  -0.025597
     20      -0.095481   0.133758  -0.032070   0.004840  -0.033193   0.028175
     21       0.092696  -0.108215   0.031730  -0.052952   0.005627   0.032140
     22       0.153008  -0.184493   0.037862   0.008423   0.080110   0.058923
     23      -0.123497   0.160356  -0.038724   0.037888  -0.074747  -0.017977
     24       0.004400   0.004815  -0.021795  -0.067011   0.039196  -0.055727
     25      -0.019613  -0.003751   0.049709   0.011185  -0.060990   0.042868
     26      -0.012544  -0.004281   0.034335   0.050624  -0.017829   0.039111
     27       0.015106   0.007376  -0.023476  -0.024254   0.022069  -0.003528
     28      -0.014311  -0.008462   0.054674  -0.077576  -0.029457   0.071470
     29      -0.013364  -0.007295   0.038954  -0.034835   0.008096   0.036174
     30       0.052533   0.015875  -0.087334  -0.071825   0.012374  -0.015498
     31      -0.101399  -0.024775   0.181979  -0.007805  -0.006593   0.030260
     32      -0.074998  -0.019984   0.135056   0.032137   0.025092   0.028818
     33       0.073253   0.018283  -0.104423  -0.084144  -0.020984   0.028986
     34      -0.141828  -0.029517   0.215770   0.016554   0.058954  -0.055075
     35      -0.100685  -0.023510   0.161239   0.048779   0.070409  -0.010569
     36      -0.000907  -0.000726  -0.000477   0.000831   0.000376  -0.003643
     37      -0.000302  -0.000852   0.001143  -0.000615  -0.001488  -0.002485
     38      -0.023075  -0.000403   0.001799   0.000438   0.000194  -0.109535
     39      -0.019770   0.003272   0.006325  -0.063821  -0.142920  -0.113765
     40      -0.028199   0.006946  -0.003558  -0.034718  -0.190088  -0.139356
     41       0.013592  -0.007251  -0.002504   0.079767   0.188479   0.062973
     42      -0.019670   0.010589   0.001709   0.082641   0.003312  -0.074262
     43      -0.045942   0.016546  -0.009503   0.219386   0.059598  -0.165779
     44       0.026252  -0.017183   0.009763  -0.190217  -0.062305   0.060911
     45       0.049689   0.017994  -0.008079   0.175534  -0.163955   0.177002
     46      -0.006594   0.002844  -0.000705  -0.015816   0.059892  -0.028285
     47       0.023381   0.011449  -0.001957   0.108771  -0.149101   0.041024
     48       0.036413   0.007930   0.001260   0.079246   0.231956   0.184088
     49       0.000123   0.000798  -0.003501  -0.011919   0.058892   0.022855
     50       0.011449   0.006504   0.002771   0.032929   0.178716   0.043771
     51      -0.025976  -0.003412   0.012996  -0.114702   0.091000  -0.103666
     52       0.041930   0.012471  -0.019536   0.116039  -0.165970   0.144325
     53       0.021891   0.007773  -0.019455   0.145853  -0.123213   0.052170
     54      -0.016697   0.006686   0.004532   0.055872   0.026326  -0.061531
     55       0.044422  -0.006875  -0.001078  -0.231763  -0.042229   0.165813
     56       0.020095  -0.006078  -0.001924  -0.183326  -0.021356   0.048773
     57      -0.032145  -0.001334   0.043370   0.002245  -0.022562  -0.045805
     58       0.033647   0.010382  -0.083584  -0.118842   0.018622  -0.098488
     59       0.038397   0.005720  -0.064451  -0.052407   0.066040  -0.002651
     60       0.085734   0.026068  -0.196267  -0.173665   0.054094  -0.181298
     61       0.066634   0.018005  -0.150620  -0.168455   0.040298  -0.136294
     62      -0.004824  -0.003172  -0.002787  -0.071783   0.108680  -0.041960
     63      -0.086192  -0.014164   0.156645   0.086224  -0.054642   0.027115
     64       0.133330   0.032829  -0.284003  -0.267066   0.082816  -0.204319
     65       0.125215   0.021900  -0.216430  -0.163921   0.135467  -0.018316
     66      -0.117777  -0.017939   0.206564   0.150328  -0.125179   0.014401
     67      -0.068601  -0.011266   0.096799  -0.039032   0.004435  -0.075513
     68       0.023147   0.003077  -0.032861  -0.008859   0.028171   0.016704
     69      -0.004524  -0.005121   0.048775  -0.069971   0.036408   0.105748
     70       0.049153   0.019158  -0.090233   0.044748  -0.017402  -0.014592
     71       0.038007   0.013575  -0.070590   0.063087   0.023856  -0.010210
     72      -0.059227  -0.025507   0.162291  -0.122754   0.047083   0.157692
     73       0.152029   0.058187  -0.308922   0.143809  -0.042562  -0.128494
     74       0.129275   0.044759  -0.236926   0.150901   0.027656  -0.025299
     75       0.134052   0.041089  -0.209223   0.017013   0.020913   0.055533
     76       0.071451   0.031946  -0.148941   0.141861   0.000520  -0.057690
     77       0.013572   0.002749  -0.016446   0.005752   0.015965   0.016296
     78      -0.094681  -0.038637   0.238883  -0.152957   0.056215   0.202145
     79      -0.037936  -0.013051   0.092919  -0.033462   0.001751   0.077429
     80       0.001294   0.007768  -0.029060   0.122700   0.039691  -0.061740
     81      -0.008913   0.046310  -0.006265  -0.055347  -0.073632   0.105123
     82      -0.053938   0.072222  -0.018952  -0.052681  -0.045390   0.009646
     83       0.048917  -0.062178   0.012158   0.088760   0.020849  -0.012701
     84      -0.077291   0.150310  -0.030169  -0.128857  -0.127292   0.160667
     85      -0.169461   0.253075  -0.060848  -0.175598  -0.141713   0.120802
     86       0.162640  -0.213572   0.045850   0.215629   0.086597  -0.032522
     87       0.152231  -0.174886   0.045189   0.069940   0.015770   0.059935
     88      -0.088507   0.126993  -0.028712  -0.174076  -0.086281   0.056629
     89       0.019005  -0.017962   0.003213   0.023802  -0.005041   0.012040
     90      -0.114799   0.209093  -0.043638  -0.163788  -0.155951   0.197406
     91       0.052609  -0.092929   0.018797   0.061584   0.039360  -0.088571
     92       0.003421  -0.015010  -0.001283   0.141031   0.024866  -0.063172
     93      -0.040967   0.043645  -0.003508  -0.009196   0.017924  -0.042597
     94      -0.042731   0.080919  -0.025812   0.078262   0.051612   0.100665
     95       0.053511  -0.065626   0.013453  -0.008603  -0.074458  -0.008629
     96      -0.116316   0.159766  -0.031720   0.029655   0.067850   0.032523
     97      -0.166829   0.265974  -0.070082   0.137004   0.136965   0.201572
     98       0.172728  -0.222926   0.048551  -0.047686  -0.166831  -0.029528
     99      -0.152705   0.199259  -0.039534   0.041954   0.149651   0.019365
    100       0.089014  -0.097137   0.013947   0.050262   0.029003   0.078946
    101       0.026497  -0.027390   0.004415   0.007599  -0.025671   0.012792
    102       0.112157  -0.185997   0.051949  -0.080475  -0.088253  -0.175071
    103      -0.093257   0.156032  -0.043827   0.100749   0.083601   0.140992
    104       0.005860  -0.010722   0.002938  -0.020538  -0.131083  -0.051997
    105       0.065610   0.065063   0.054071  -0.011138   0.102854  -0.067920
    106      -0.018086   0.004840   0.000022   0.000435   0.061365  -0.092362
    107       0.055961   0.041118   0.037904  -0.054538   0.049562  -0.007794
    108       0.236563   0.222708   0.185781  -0.051392   0.265733  -0.206730
    109      -0.023175  -0.001962  -0.005511  -0.000567   0.054199  -0.075733
    110       0.180505   0.141551   0.123029  -0.098648   0.152538  -0.023725
    111      -0.005760   0.007189   0.010855  -0.050795   0.105165  -0.071193
    112      -0.199398  -0.148841  -0.129840   0.061375  -0.096549  -0.022610
    113       0.029495   0.017797   0.016181  -0.022726   0.003667   0.013240
    114       0.026635   0.029124   0.024265  -0.002410   0.067208  -0.036302
    115       0.161905   0.171085   0.138335  -0.042811   0.230524  -0.240752
    116       0.001201   0.002430   0.010893  -0.100233   0.076880  -0.048469
    117       0.072982   0.069532   0.049748   0.032072  -0.078993  -0.065759
    118       0.011278  -0.002755  -0.006661  -0.028866   0.060727   0.098224
    119       0.058823   0.044541   0.034176  -0.027163  -0.061537  -0.013201
    120       0.252879   0.235643   0.171762   0.062011  -0.207651  -0.208797
    121       0.015802   0.002777  -0.002549  -0.026046   0.056782   0.086295
    122       0.187722   0.149740   0.110651  -0.026916  -0.146531  -0.028958
    123       0.012846   0.018367   0.014800   0.001073  -0.117364  -0.073394
    124       0.200293   0.158651   0.111384  -0.019729  -0.064674   0.029057
    125       0.019431   0.010910   0.008634  -0.018536  -0.006835   0.011941
    126       0.024253   0.024694   0.016577   0.024502  -0.045090  -0.026682
    127      -0.179531  -0.177934  -0.135940  -0.059374   0.190877   0.246760
    128       0.018106   0.015243   0.015833  -0.051781  -0.122658  -0.063502
                 24         25         26         27         28         29    
      0       0.042756   0.064855  -0.003520   0.052032  -0.063515   0.036163
      1       0.130261  -0.039093   0.077806  -0.037912  -0.037435   0.019654
      2      -0.003078  -0.073944   0.032918   0.032902  -0.054154   0.079267
      3       0.004385   0.016919  -0.004609  -0.001432   0.014112  -0.059809
      4       0.162791   0.017588   0.058839  -0.023911  -0.025410  -0.004344
      5      -0.003299  -0.058554   0.018528   0.000430   0.000540  -0.000244
      6      -0.036217   0.057389  -0.035862  -0.049766   0.037402   0.064073
      7       0.133843   0.071254   0.040216  -0.037087  -0.025052  -0.031625
      8      -0.003959  -0.081963   0.017706  -0.027442   0.010708   0.098706
      9       0.004749  -0.038851   0.014766  -0.005701   0.049666  -0.203990
     10       0.162536   0.019817   0.057979  -0.023322  -0.025238  -0.003225
     11      -0.002207  -0.021563   0.005854  -0.002634   0.031868  -0.125003
     12       0.107754  -0.023701  -0.093457  -0.058378   0.006177  -0.000808
     13      -0.098100   0.051543  -0.021864  -0.021604   0.002808   0.076389
     14      -0.005778   0.002415  -0.076490   0.030490  -0.045316  -0.092329
     15       0.139689  -0.060151   0.003303  -0.003792   0.064911  -0.004484
     16      -0.041627   0.032440  -0.085499   0.063336   0.032650  -0.003238
     17       0.001459   0.025847  -0.075502  -0.039827  -0.090032  -0.040106
     18       0.148392  -0.046926  -0.020269  -0.022506  -0.008529  -0.034214
     19      -0.091435   0.033091  -0.015623   0.011266  -0.044604  -0.028527
     20       0.000144   0.012057  -0.057532  -0.000696   0.002091   0.001152
     21       0.144575  -0.054210   0.012022  -0.024790  -0.058520  -0.080640
     22      -0.097249   0.021198   0.035647   0.006285  -0.130440  -0.109705
     23       0.003237   0.007624  -0.022587   0.005838   0.098630   0.094704
     24      -0.109758   0.036723   0.088712   0.057900  -0.001395  -0.009866
     25      -0.094307  -0.051127   0.011914  -0.030291   0.042523  -0.066610
     26       0.008526   0.051592   0.057154  -0.033258   0.079994  -0.056453
     27      -0.142273  -0.050746   0.031151   0.005120  -0.053849  -0.032427
     28      -0.031489  -0.073012  -0.046210   0.066268   0.038457   0.017095
     29       0.003655   0.069419   0.046208   0.037452   0.099022   0.003038
     30      -0.149603  -0.023977   0.043822   0.022976   0.023678  -0.025083
     31      -0.086065  -0.031214   0.008609   0.009539  -0.054054   0.004937
     32       0.001976   0.046058   0.038304  -0.000979  -0.001032  -0.001581
     33      -0.144607  -0.047746   0.023831   0.024405   0.085903  -0.040900
     34      -0.095101   0.009677   0.042455   0.005476  -0.180129   0.038563
     35      -0.003430   0.019456   0.012840  -0.005960  -0.126550   0.034694
     36      -0.000382   0.025447  -0.009232  -0.000664   0.005425  -0.024883
     37       0.000694  -0.009885  -0.025990   0.000352  -0.026020  -0.005664
     38      -0.000922   0.001891   0.000650  -0.000444  -0.000272   0.003567
     39       0.061977   0.001078  -0.122941  -0.107787   0.030726   0.081810
     40      -0.154204   0.090572  -0.052256  -0.107810   0.047684   0.210790
     41      -0.013521  -0.028470  -0.092480   0.079464  -0.095882  -0.239212
     42       0.174350  -0.072477  -0.015079   0.054146   0.136010   0.013212
     43       0.034944   0.013404  -0.131521   0.157723   0.163725   0.024377
     44      -0.001631   0.058078  -0.080934  -0.100682  -0.234036  -0.079366
     45       0.140132   0.117515   0.013185   0.161722  -0.191407   0.155307
     46       0.119081  -0.048913   0.080833  -0.037310  -0.032922   0.019285
     47       0.004143  -0.077981   0.061608   0.079344  -0.152753   0.185377
     48      -0.134433   0.089163  -0.082098  -0.150698   0.093783   0.237672
     49       0.127525   0.078531   0.038124  -0.032938  -0.022533  -0.031928
     50      -0.014292  -0.103743  -0.002095  -0.068077   0.046316   0.240583
     51      -0.064722   0.070168   0.098362   0.106574  -0.057353   0.043529
     52      -0.155390  -0.099654   0.009922  -0.126863   0.153606  -0.165754
     53       0.015473   0.040986   0.086738  -0.084723   0.187666  -0.156318
     54      -0.178640  -0.047670   0.050815  -0.050356  -0.121919  -0.045477
     55       0.056684  -0.089230  -0.095549   0.170279   0.183500   0.051075
     56       0.012413   0.097350   0.033228   0.097065   0.242967   0.031978
     57      -0.124479   0.066838   0.180384   0.067960   0.069933  -0.106435
     58      -0.037618   0.018839   0.081123   0.102823   0.012107  -0.036501
     59       0.031177   0.040614  -0.010607  -0.011153   0.005356   0.049406
     60      -0.070357   0.111629   0.218738   0.184770   0.067814  -0.079874
     61      -0.022282   0.031434   0.091597   0.135478   0.011226  -0.028807
     62       0.042570   0.072769   0.013064   0.056207  -0.045394   0.095876
     63      -0.151692   0.035985   0.143691  -0.000021   0.060767  -0.103481
     64       0.009541   0.051331   0.101184   0.191256   0.009051  -0.008871
     65       0.065799   0.002586  -0.123977  -0.033063  -0.052524   0.161922
     66      -0.174945   0.078293   0.273653   0.035865   0.153826  -0.243506
     67      -0.059434   0.039328   0.119782   0.122511  -0.010400  -0.042271
     68       0.015291   0.041409   0.019379  -0.027254   0.042670  -0.003813
     69      -0.103162  -0.174529  -0.027676   0.116046  -0.096695  -0.040594
     70      -0.082120  -0.112714  -0.032794  -0.005264  -0.082434  -0.026593
     71      -0.025994   0.013210   0.045546   0.002180  -0.013424  -0.040590
     72      -0.080785  -0.188072  -0.042079   0.161074  -0.088306  -0.026229
     73      -0.125460  -0.057997   0.004549  -0.109334  -0.075669  -0.045727
     74      -0.060094  -0.098947   0.023077   0.012743  -0.127937  -0.096683
     75      -0.139825  -0.240874  -0.036652   0.105284  -0.150700  -0.082956
     76      -0.123550  -0.170368  -0.027009  -0.052645  -0.211907  -0.075719
     77      -0.001457   0.049147   0.043454   0.027158   0.057899  -0.011486
     78      -0.068260  -0.218469  -0.057081   0.202121  -0.099426  -0.023761
     79      -0.049242  -0.154788  -0.060472   0.076286  -0.086513  -0.010759
     80      -0.052498   0.039980   0.072792  -0.074787  -0.077665  -0.058935
     81       0.099351  -0.116740   0.124347  -0.119156   0.099080   0.016052
     82      -0.081497   0.075512  -0.104115   0.002921  -0.087269  -0.015652
     83       0.026950  -0.022182  -0.039357  -0.004796   0.032959  -0.028572
     84       0.077823  -0.116966   0.144754  -0.165860   0.085476   0.029154
     85      -0.119686   0.057563  -0.041845  -0.097499  -0.086152   0.011754
     86       0.057302  -0.099047   0.047421  -0.017315   0.156942  -0.025675
     87       0.130510  -0.166617   0.176733  -0.117601   0.160195   0.002607
     88      -0.117641   0.130160  -0.138767  -0.040435  -0.227585  -0.028763
     89       0.008128   0.006775  -0.059609  -0.024017  -0.035053  -0.033229
     90       0.068235  -0.127311   0.168048  -0.198652   0.092110   0.037886
     91      -0.048466   0.086929  -0.151393   0.089111  -0.076892  -0.037842
     92       0.047734  -0.019099  -0.076991   0.068663   0.097449  -0.019705
     93       0.122017  -0.057789  -0.180413  -0.068898  -0.014914  -0.118778
     94      -0.048749   0.038297   0.083632   0.108293  -0.004566   0.037233
     95      -0.026574   0.037807  -0.020777   0.009336  -0.026288   0.037929
     96       0.146317  -0.061193  -0.128302   0.002088  -0.005856  -0.116359
     97      -0.010721   0.024678   0.125728   0.193617   0.006954   0.011532
     98      -0.058313   0.079105   0.088458   0.032889  -0.024223   0.162287
     99       0.165793  -0.108361  -0.257729  -0.043303  -0.028551  -0.279564
    100      -0.067807   0.046448   0.125174   0.126616  -0.025691   0.032607
    101      -0.011833   0.018801  -0.046058   0.021633  -0.034439  -0.026259
    102       0.076824  -0.043751  -0.242443  -0.183046  -0.027560  -0.088381
    103      -0.034634   0.034111   0.101757   0.142071   0.000142   0.029844
    104      -0.037660   0.050792  -0.058258  -0.054990  -0.004665   0.107041
    105      -0.031592   0.018882  -0.004515  -0.060778   0.024609  -0.016002
    106       0.113502  -0.138430   0.160387  -0.113807  -0.094241   0.083493
    107      -0.033953  -0.035661  -0.022451   0.016098   0.046568   0.002253
    108      -0.099947  -0.029371   0.010344  -0.169691   0.066725  -0.004909
    109       0.117624  -0.120082   0.145556  -0.094251  -0.084879   0.072201
    110      -0.071249   0.047160  -0.112991   0.047960   0.149492  -0.066450
    111      -0.041635   0.011647  -0.016625  -0.091824   0.084141  -0.073529
    112       0.176611  -0.199646   0.244835  -0.103016  -0.214253   0.152945
    113      -0.012262  -0.050749   0.006419   0.030244  -0.009594   0.043137
    114      -0.017148   0.029729  -0.008710  -0.036277   0.015684  -0.018743
    115       0.044294  -0.190228   0.179108  -0.230428  -0.049434   0.093274
    116      -0.056437  -0.073904  -0.011409  -0.054258   0.102164  -0.042426
    117       0.036775   0.028764  -0.005364   0.053120  -0.015755  -0.036085
    118       0.119077   0.204172   0.042955  -0.118259  -0.043779  -0.106940
    119       0.030316  -0.023497   0.038112  -0.011328  -0.039909  -0.013370
    120       0.103379  -0.014581   0.013874   0.158474  -0.057760  -0.055811
    121       0.121729   0.188805   0.042960  -0.104848  -0.042099  -0.099037
    122       0.070682   0.100715   0.058369  -0.048066  -0.096976  -0.118158
    123       0.050811   0.031823   0.010084   0.082003  -0.043714  -0.121769
    124       0.182565   0.306951   0.070832  -0.115932  -0.112572  -0.217443
    125       0.004521  -0.058273   0.023205  -0.022623  -0.007090   0.054513
    126       0.019728   0.040897  -0.009956   0.024517  -0.004512  -0.030331
    127       0.053381   0.248367   0.025228  -0.225402  -0.001297  -0.086589
    128       0.056190  -0.065143   0.054490   0.061453  -0.069754  -0.086101
                 30         31         32         33         34         35    
      0      -0.013511  -0.023042   0.013468   0.042135  -0.075132   0.005751
      1       0.029460  -0.079731  -0.001314  -0.013887  -0.015270  -0.073227
      2      -0.024351   0.022553   0.003405  -0.074581   0.058437   0.003441
      3       0.000836  -0.004561  -0.003502   0.030539  -0.012098   0.006578
      4       0.061990  -0.157542   0.000162   0.004352  -0.061235  -0.116155
      5      -0.002702   0.002665  -0.007523  -0.046452   0.040528  -0.024247
      6       0.018532   0.020238   0.005070   0.038801  -0.045080   0.065147
      7       0.029871  -0.080953   0.001621   0.015681  -0.048400  -0.055840
      8       0.023622  -0.019253  -0.001946  -0.072338   0.024180  -0.061435
      9      -0.002272  -0.005904  -0.019381   0.020203   0.049626  -0.028217
     10       0.062741  -0.159056   0.000351   0.005264  -0.062435  -0.114293
     11      -0.004762   0.002175  -0.017179  -0.014376   0.038224  -0.019491
     12       0.039607   0.018621  -0.047471  -0.037539  -0.071887   0.004529
     13      -0.007892  -0.017053   0.059677  -0.029219  -0.010365  -0.086700
     14      -0.027935  -0.002181   0.016609  -0.066069  -0.021520  -0.061486
     15       0.028557   0.029885  -0.072625  -0.013408  -0.062042   0.054894
     16      -0.027089   0.007142   0.022023  -0.043836  -0.058153  -0.048936
     17       0.024216  -0.000686  -0.015640  -0.068685  -0.059466  -0.000679
     18       0.066313   0.037606  -0.122629  -0.019100  -0.069069   0.088688
     19      -0.041467  -0.025603   0.072456  -0.025320   0.022595  -0.069722
     20      -0.000072   0.005863   0.006616  -0.043383  -0.038489  -0.029735
     21       0.064643   0.031128  -0.127157  -0.011382  -0.037495   0.107242
     22      -0.046013  -0.037453   0.067435  -0.014018   0.073302  -0.037851
     23       0.003038   0.014851   0.012062  -0.014796  -0.035845  -0.026317
     24      -0.054586  -0.024868  -0.030837  -0.038942  -0.050753   0.047746
     25      -0.023410  -0.023695  -0.048919   0.036371  -0.060108  -0.050577
     26       0.032307   0.005430   0.008549  -0.074892   0.035994   0.042141
     27      -0.052299  -0.038644  -0.054849  -0.008395  -0.082398   0.015719
     28      -0.031880   0.006393  -0.009839   0.048688  -0.002735  -0.067080
     29      -0.027411  -0.000464  -0.005618  -0.074575  -0.038623   0.040580
     30      -0.106455  -0.053601  -0.089293  -0.012244  -0.117827   0.004226
     31      -0.057408  -0.032458  -0.046149   0.029180  -0.062829  -0.012574
     32       0.005368  -0.003182   0.009208  -0.049870   0.002639   0.041500
     33      -0.106822  -0.048097  -0.094209  -0.001868  -0.115321  -0.028475
     34      -0.059358  -0.044542  -0.038485   0.013160  -0.065217   0.047124
     35       0.005562  -0.011256   0.015678  -0.019806   0.004349   0.039993
     36       0.001232   0.000747   0.005693   0.008166   0.284632  -0.142948
     37       0.000182   0.006241  -0.000821  -0.013050   0.144299   0.281821
     38       0.000845  -0.000643   0.000897   0.203945  -0.005076   0.017316
     39       0.036518   0.006220   0.000194  -0.038966  -0.070296  -0.033635
     40       0.001152  -0.026988   0.117466  -0.016030   0.007883  -0.121833
     41      -0.096537  -0.018977   0.080406  -0.056854   0.062426  -0.076114
     42       0.028060   0.053139  -0.094764  -0.000825  -0.067575   0.079565
     43      -0.021750   0.047363  -0.031727  -0.039179  -0.099920  -0.018701
     44       0.089156   0.008762  -0.083960  -0.062637  -0.034919   0.081320
     45      -0.024147  -0.085346   0.038596   0.030854  -0.114841  -0.031343
     46       0.024385  -0.065350   0.000305  -0.022571   0.000793  -0.072991
     47      -0.083533   0.102381   0.011465  -0.069099   0.031207   0.085306
     48       0.036151   0.085911   0.016475   0.021739  -0.038252   0.117037
     49       0.025972  -0.073627  -0.000753   0.025037  -0.060442  -0.044582
     50       0.084709  -0.098944  -0.003195  -0.063399  -0.056973  -0.081607
     51      -0.035804  -0.007138   0.008340  -0.044390  -0.019471   0.066565
     52      -0.031682  -0.040812  -0.104342   0.026405  -0.100083  -0.060762
     53       0.118493   0.030294   0.046326  -0.062730   0.097374  -0.017263
     54      -0.057258  -0.062801  -0.070912   0.005680  -0.102305   0.009137
     55      -0.014137   0.054295   0.032779   0.044118   0.042937  -0.090884
     56      -0.112685  -0.019205  -0.047611  -0.058688  -0.094530  -0.023131
     57       0.082479   0.023992   0.062593  -0.132515  -0.105660   0.080843
     58       0.096091   0.043906   0.089708  -0.048636  -0.103275   0.030419
     59      -0.089783  -0.033632  -0.062086  -0.017013   0.069217   0.043947
     60       0.168799   0.077244   0.167408  -0.200051  -0.161656   0.143761
     61       0.119990   0.058736   0.118859  -0.067464  -0.118492   0.048243
     62      -0.071128  -0.014347  -0.015166  -0.042563   0.051383   0.086012
     63       0.006467  -0.015881  -0.015477  -0.078970  -0.066818   0.041077
     64       0.151688   0.081576   0.162380  -0.091711  -0.134466   0.074442
     65      -0.266270  -0.095944  -0.188279   0.098092   0.157653   0.000406
     66       0.227638   0.064727   0.142442  -0.220878  -0.181414   0.090194
     67       0.131333   0.058257   0.126242  -0.081057  -0.129698   0.055340
     68      -0.038544  -0.020063  -0.036901  -0.046101   0.043664   0.043037
     69       0.135042   0.076491   0.096137   0.119463  -0.134479  -0.074556
     70       0.023625   0.004966   0.002302   0.086594  -0.024400  -0.050402
     71       0.076555   0.031097   0.049770  -0.026959  -0.061460   0.048805
     72       0.159234   0.099591   0.125287   0.140699  -0.146333  -0.099566
     73      -0.072024  -0.065526  -0.089351   0.013861   0.016480   0.014152
     74       0.254003   0.110149   0.160778   0.088961  -0.135205   0.006412
     75       0.228143   0.116482   0.148871   0.182026  -0.180105  -0.092994
     76       0.122437   0.027731   0.046703   0.146076  -0.068194  -0.045314
     77       0.017024   0.015487   0.021915  -0.063361  -0.034369   0.047957
     78       0.209613   0.132815   0.168623   0.179016  -0.172907  -0.128885
     79       0.095161   0.058613   0.071491   0.143465  -0.061695  -0.101627
     80       0.047066  -0.011259   0.006875  -0.055126  -0.045577   0.094863
     81      -0.091674  -0.060749   0.144399   0.099746  -0.001460   0.168634
     82       0.022056   0.006649  -0.013658  -0.084721  -0.040849  -0.069437
     83      -0.055976  -0.022519   0.076482  -0.020008  -0.073972   0.023594
     84      -0.106473  -0.081274   0.187268   0.119515   0.015463   0.197948
     85      -0.039088  -0.050376   0.116869  -0.019462  -0.003774   0.013359
     86      -0.181152  -0.081105   0.245553   0.085591  -0.066667   0.127345
     87      -0.159436  -0.092931   0.231232   0.159160  -0.000917   0.230857
     88       0.104844   0.024443  -0.099238  -0.146433  -0.019620  -0.118917
     89      -0.012857  -0.011534   0.030295  -0.052895  -0.064359  -0.004379
     90      -0.131864  -0.102138   0.236272   0.146188   0.025958   0.234053
     91       0.064366   0.051396  -0.111642  -0.133931  -0.070350  -0.139628
     92      -0.045405   0.011235   0.025440  -0.041539  -0.105620  -0.017549
     93      -0.054776  -0.011480   0.083013  -0.124795  -0.133142   0.016546
     94       0.065587   0.030837  -0.129410   0.054727   0.092508  -0.065002
     95       0.059798   0.021613  -0.085798  -0.011861  -0.005042  -0.081126
     96      -0.007404   0.016970  -0.025436  -0.071233  -0.070012   0.015506
     97       0.097635   0.058100  -0.226126   0.098844   0.154345  -0.060272
     98       0.181296   0.060028  -0.263915   0.096969   0.084409  -0.111186
     99      -0.162790  -0.036220   0.206033  -0.210934  -0.186108   0.058847
    100       0.087891   0.039315  -0.178543   0.085082   0.129028  -0.068942
    101       0.019875   0.012904  -0.043241  -0.042035  -0.021410  -0.064570
    102      -0.101909  -0.048403   0.218431  -0.189834  -0.224948   0.016724
    103       0.080298   0.042047  -0.170107   0.074464   0.119829  -0.065036
    104       0.057647   0.008932  -0.031489  -0.033525  -0.051834  -0.093290
    105      -0.019283   0.068278  -0.005422   0.018824  -0.027504  -0.031039
    106      -0.071578   0.141894  -0.013613  -0.128678   0.020605  -0.176985
    107       0.053321  -0.097126  -0.000002  -0.019114   0.072323   0.038151
    108      -0.052484   0.199510  -0.020028  -0.035589   0.008203  -0.100834
    109      -0.050843   0.094145  -0.010536  -0.105686   0.014853  -0.152335
    110       0.163080  -0.298337   0.007388   0.090697   0.066322   0.150733
    111       0.009252   0.046361  -0.013375   0.033474  -0.006799  -0.025881
    112      -0.166922   0.288457  -0.014821  -0.217792   0.007577  -0.267454
    113       0.015368  -0.046617   0.002453  -0.050150   0.060837   0.009840
    114      -0.011557   0.038590  -0.002049   0.031557  -0.034646  -0.013150
    115      -0.106852   0.280984  -0.029769  -0.188507   0.056930  -0.260370
    116       0.052675  -0.042894  -0.014516  -0.040089   0.104872   0.000843
    117       0.014176  -0.060940  -0.001448   0.021613   0.004782   0.039950
    118      -0.069592   0.152203   0.017246   0.143368  -0.146583  -0.060213
    119      -0.049714   0.091057   0.003719  -0.016623   0.012724  -0.081942
    120       0.042839  -0.192537  -0.008466  -0.035590   0.075533   0.037199
    121      -0.056549   0.119722   0.015044   0.126760  -0.132564  -0.057749
    122      -0.156836   0.298136   0.019945   0.107761  -0.075854  -0.117062
    123      -0.020062  -0.033822  -0.001812   0.041784   0.012471   0.020030
    124      -0.160903   0.300892   0.030122   0.243890  -0.208401  -0.101549
    125      -0.007100   0.032144  -0.000422  -0.056995   0.030193  -0.060673
    126       0.006701  -0.025882   0.000589   0.037567  -0.015786   0.038871
    127      -0.098003   0.283906   0.024669   0.203421  -0.223677  -0.063132
    128      -0.051860   0.028657  -0.003075  -0.042676   0.065001  -0.093845
                 36         37         38         39         40         41    
      0      -0.007454  -0.006135  -0.009247  -0.040081  -0.059638   0.036133
      1      -0.035979  -0.157330   0.125008   0.007861   0.079924  -0.046864
      2       0.015801  -0.010628   0.003370   0.053610   0.088234  -0.062795
      3      -0.009461  -0.030098   0.024992  -0.002998   0.001789   0.000149
      4       0.002464   0.001202  -0.001035  -0.021571  -0.026261   0.012095
      5       0.015506   0.049131  -0.026248   0.001143  -0.000119  -0.000058
      6       0.006008  -0.000582  -0.017040   0.053356   0.051517  -0.038772
      7       0.060073   0.150515  -0.125147   0.066031   0.014389  -0.042626
      8      -0.021853  -0.007208   0.010266  -0.076871  -0.070844   0.065530
      9      -0.038265  -0.121575   0.120968  -0.022618   0.021646  -0.000326
     10       0.005539   0.006750  -0.006197  -0.015835  -0.022168   0.008203
     11       0.066769   0.211651  -0.147264   0.040917  -0.036374  -0.000818
     12      -0.103100   0.089802   0.115298   0.070320  -0.061486  -0.072547
     13       0.059296  -0.062071  -0.053223  -0.002147  -0.035008  -0.017590
     14      -0.017186  -0.008297   0.002897   0.044524  -0.073126  -0.074663
     15       0.089182  -0.106150  -0.100554  -0.027135  -0.015185  -0.018662
     16      -0.046747   0.067992   0.077254  -0.005876   0.089846   0.075202
     17       0.004984   0.022727   0.008590  -0.020428   0.086119   0.079925
     18       0.011151  -0.014158  -0.013997  -0.011506   0.024363   0.014864
     19       0.018613  -0.018622  -0.020420   0.004044  -0.015645  -0.009254
     20       0.035109  -0.037532  -0.026219  -0.001337  -0.000249   0.000055
     21       0.050036  -0.057731  -0.070818  -0.025059   0.013256   0.009102
     22       0.078786  -0.082574  -0.108035  -0.020397  -0.022073  -0.008965
     23       0.146902  -0.157847  -0.141696  -0.049545  -0.017418  -0.003096
     24       0.138468   0.015367   0.119032   0.075962  -0.061624   0.065093
     25       0.077352   0.015583   0.048629  -0.033951  -0.005516  -0.015215
     26       0.004962  -0.017977   0.000048   0.086110  -0.034589   0.069574
     27      -0.136780  -0.038006  -0.105839   0.015029   0.027890   0.022168
     28      -0.069585  -0.026469  -0.072954   0.087230   0.004118   0.065201
     29       0.012555   0.023175   0.012951  -0.096957   0.009275  -0.077669
     30      -0.016048  -0.005075  -0.013121  -0.027809   0.008055  -0.013707
     31       0.023514   0.004219   0.019741  -0.014886   0.001527  -0.007203
     32      -0.051545  -0.011286  -0.027865   0.001452   0.001028   0.000747
     33      -0.068254  -0.017809  -0.066455  -0.019508   0.021351  -0.007956
     34       0.102789   0.021163   0.104785  -0.016140  -0.020988  -0.007747
     35      -0.215001  -0.047181  -0.149459   0.009125   0.051360   0.005046
     36       0.006133   0.020746   0.000010  -0.059871   0.048237   0.002594
     37      -0.020449   0.005520   0.000270  -0.048511  -0.060207  -0.007424
     38       0.000177  -0.000976  -0.008443   0.003906  -0.001375   0.000052
     39      -0.081086   0.056023   0.083004   0.060482  -0.097245  -0.093769
     40       0.096143  -0.110785  -0.088851  -0.011743  -0.084984  -0.059427
     41       0.027626  -0.079422  -0.076087   0.036870  -0.153643  -0.141693
     42       0.118016  -0.132832  -0.120818  -0.053578   0.004634   0.009300
     43       0.000840   0.028986   0.033836  -0.052706   0.119209   0.106465
     44       0.073019  -0.027961  -0.072126  -0.084456   0.137360   0.139708
     45      -0.034272  -0.066683   0.032175  -0.097477  -0.077036   0.066890
     46      -0.032198  -0.154347   0.114984   0.014107   0.078689  -0.043144
     47       0.057623   0.069731  -0.079927   0.139432   0.127648  -0.117709
     48      -0.006534  -0.065426   0.024346   0.060054   0.113958  -0.067437
     49       0.062613   0.153126  -0.120847   0.063077   0.013227  -0.034989
     50      -0.010707   0.081014  -0.071274  -0.101222  -0.167605   0.119108
     51       0.103699   0.000924   0.087420   0.108156  -0.047836   0.083264
     52       0.133421   0.033876   0.083090  -0.081154  -0.020998  -0.052768
     53      -0.073963  -0.051784  -0.081481   0.168854  -0.016874   0.134351
     54      -0.172230  -0.042982  -0.124103  -0.009159   0.049570  -0.002267
[...]
freq.     449.58  E(vib)   ...       0.89 
freq.     451.17  E(vib)   ...       0.89 
freq.     570.92  E(vib)   ...       0.77 
freq.     571.22  E(vib)   ...       0.77 
freq.     572.79  E(vib)   ...       0.77 
freq.     574.48  E(vib)   ...       0.77 
freq.     574.65  E(vib)   ...       0.77 
freq.     579.99  E(vib)   ...       0.76 
freq.     677.38  E(vib)   ...       0.68 
freq.     678.72  E(vib)   ...       0.68 
freq.     679.40  E(vib)   ...       0.68 
freq.     679.83  E(vib)   ...       0.68 
freq.     680.22  E(vib)   ...       0.68 
freq.     681.15  E(vib)   ...       0.68 
freq.     796.90  E(vib)   ...       0.59 
freq.     797.34  E(vib)   ...       0.59 
freq.     797.55  E(vib)   ...       0.59 
freq.     955.45  E(vib)   ...       0.48 
freq.     955.49  E(vib)   ...       0.48 
freq.     959.35  E(vib)   ...       0.48 
freq.     959.93  E(vib)   ...       0.48 
freq.     960.07  E(vib)   ...       0.48 
freq.     960.74  E(vib)   ...       0.48 
freq.    1025.41  E(vib)   ...       0.44 
freq.    1025.52  E(vib)   ...       0.44 
freq.    1026.13  E(vib)   ...       0.44 
freq.    1036.13  E(vib)   ...       0.43 
freq.    1036.93  E(vib)   ...       0.43 
freq.    1036.95  E(vib)   ...       0.43 
freq.    1041.94  E(vib)   ...       0.43 
freq.    1042.10  E(vib)   ...       0.43 
freq.    1044.52  E(vib)   ...       0.43 
freq.    1044.58  E(vib)   ...       0.43 
freq.    1044.83  E(vib)   ...       0.43 
freq.    1046.37  E(vib)   ...       0.43 
freq.    1210.88  E(vib)   ...       0.34 
freq.    1211.07  E(vib)   ...       0.34 
freq.    1212.34  E(vib)   ...       0.34 
freq.    1301.23  E(vib)   ...       0.30 
freq.    1301.37  E(vib)   ...       0.30 
freq.    1306.32  E(vib)   ...       0.30 
freq.    1373.30  E(vib)   ...       0.27 
freq.    1373.55  E(vib)   ...       0.27 
freq.    1373.61  E(vib)   ...       0.27 
freq.    1379.81  E(vib)   ...       0.27 
freq.    1379.85  E(vib)   ...       0.27 
freq.    1380.16  E(vib)   ...       0.27 
freq.    1432.66  E(vib)   ...       0.25 
freq.    1432.75  E(vib)   ...       0.25 
freq.    1438.10  E(vib)   ...       0.25 
freq.    1441.55  E(vib)   ...       0.25 
freq.    1441.75  E(vib)   ...       0.25 
freq.    1441.98  E(vib)   ...       0.25 
freq.    1442.55  E(vib)   ...       0.25 
freq.    1442.59  E(vib)   ...       0.25 
freq.    1442.95  E(vib)   ...       0.25 
freq.    1453.42  E(vib)   ...       0.24 
freq.    1453.48  E(vib)   ...       0.24 
freq.    1454.32  E(vib)   ...       0.24 
freq.    1496.96  E(vib)   ...       0.23 
freq.    1497.18  E(vib)   ...       0.23 
freq.    1527.02  E(vib)   ...       0.22 
freq.    1573.29  E(vib)   ...       0.21 
freq.    1573.31  E(vib)   ...       0.21 
freq.    1576.47  E(vib)   ...       0.20 
freq.    1650.32  E(vib)   ...       0.18 
freq.    1650.48  E(vib)   ...       0.18 
freq.    1685.64  E(vib)   ...       0.17 
freq.    3036.18  E(vib)   ...       0.02 
freq.    3036.37  E(vib)   ...       0.02 
freq.    3036.78  E(vib)   ...       0.02 
freq.    3036.85  E(vib)   ...       0.02 
freq.    3036.90  E(vib)   ...       0.02 
freq.    3037.01  E(vib)   ...       0.02 
freq.    3110.70  E(vib)   ...       0.02 
freq.    3110.98  E(vib)   ...       0.02 
freq.    3111.09  E(vib)   ...       0.02 
freq.    3111.31  E(vib)   ...       0.02 
freq.    3111.45  E(vib)   ...       0.02 
freq.    3111.66  E(vib)   ...       0.02 
freq.    3148.17  E(vib)   ...       0.02 
freq.    3148.41  E(vib)   ...       0.02 
freq.    3148.57  E(vib)   ...       0.02 
freq.    3148.64  E(vib)   ...       0.02 
freq.    3149.19  E(vib)   ...       0.02 
freq.    3149.48  E(vib)   ...       0.02 
freq.    3209.56  E(vib)   ...       0.02 
freq.    3210.63  E(vib)   ...       0.02 
freq.    3211.11  E(vib)   ...       0.02 

------------
INNER ENERGY
------------

The inner energy is: U= E(el) + E(ZPE) + E(vib) + E(rot) + E(trans)
    E(el)   - is the total energy from the electronic structure calculation
              = E(kin-el) + E(nuc-el) + E(el-el) + E(nuc-nuc)
    E(ZPE)  - the the zero temperature vibrational energy from the frequency calculation
    E(vib)  - the the finite temperature correction to E(ZPE) due to population
              of excited vibrational states
    E(rot)  - is the rotational thermal energy
    E(trans)- is the translational thermal energy

Summary of contributions to the inner energy U:
Electronic energy                ...      0.00000000 Eh
Zero point energy                ...      0.33761163 Eh     211.85 kcal/mol
Thermal vibrational correction   ...      0.11072165 Eh      69.48 kcal/mol
Thermal rotational correction    ...      0.00343439 Eh       2.16 kcal/mol
Thermal translational correction ...      0.00343439 Eh       2.16 kcal/mol
-----------------------------------------------------------------------
Total thermal energy                      0.45520207 Eh


Summary of corrections to the electronic energy:
(perhaps to be used in another calculation)
Total thermal correction                  0.11759043 Eh      73.79 kcal/mol
Non-thermal (ZPE) correction              0.33761163 Eh     211.85 kcal/mol
-----------------------------------------------------------------------
Total correction                          0.45520207 Eh     285.64 kcal/mol


--------
ENTHALPY
--------

The enthalpy is H = U + kB*T
                kB is Boltzmann's constant
Total free energy                 ...      0.45520207 Eh 
Thermal Enthalpy correction       ...      0.00228966 Eh       1.44 kcal/mol
-----------------------------------------------------------------------
Total Enthalpy                    ...      0.45749173 Eh


Note: Only C1 symmetry has been detected, increase convergence thresholds 
      if your molecule has a higher symmetry. Symmetry factor of 1.0 is   
      used for the rotational entropy correction. 
 

Note: Rotational entropy computed according to Herzberg 
Infrared and Raman Spectra, Chapter V,1, Van Nostrand Reinhold, 1945 
Point Group:  C1, Symmetry Number:   1  
Rotational constants in cm-1:     0.008852     0.008833     0.006548 

Vibrational entropy computed according to the QRRHO of S. Grimme
Chem.Eur.J. 2012 18 9955


-------
ENTROPY
-------

The entropy contributions are T*S = T*(S(el)+S(vib)+S(rot)+S(trans))
     S(el)   - electronic entropy
     S(vib)  - vibrational entropy
     S(rot)  - rotational entropy
     S(trans)- translational entropy
The entropies will be listed as mutliplied by the temperature to get
units of energy

Electronic entropy                ...      0.00000000 Eh      0.00 kcal/mol
Vibrational entropy               ...      0.22123441 Eh    138.83 kcal/mol
Rotational entropy                ...      0.04268788 Eh     26.79 kcal/mol
Translational entropy             ...      0.05529808 Eh     34.70 kcal/mol
-----------------------------------------------------------------------
Final entropy term                ...      0.31922037 Eh    200.31 kcal/mol

In case the symmetry of your molecule has not been determined correctly
or in case you have a reason to use a different symmetry number we print 
out the resulting rotational entropy values for sn=1,12 :
 --------------------------------------------------------
|  sn= 1 | S(rot)=       0.04268788 Eh     26.79 kcal/mol|
|  sn= 2 | S(rot)=       0.04110085 Eh     25.79 kcal/mol|
|  sn= 3 | S(rot)=       0.04017250 Eh     25.21 kcal/mol|
|  sn= 4 | S(rot)=       0.03951383 Eh     24.80 kcal/mol|
|  sn= 5 | S(rot)=       0.03900292 Eh     24.47 kcal/mol|
|  sn= 6 | S(rot)=       0.03858548 Eh     24.21 kcal/mol|
|  sn= 7 | S(rot)=       0.03823253 Eh     23.99 kcal/mol|
|  sn= 8 | S(rot)=       0.03792680 Eh     23.80 kcal/mol|
|  sn= 9 | S(rot)=       0.03765713 Eh     23.63 kcal/mol|
|  sn=10 | S(rot)=       0.03741589 Eh     23.48 kcal/mol|
|  sn=11 | S(rot)=       0.03719767 Eh     23.34 kcal/mol|
|  sn=12 | S(rot)=       0.03699845 Eh     23.22 kcal/mol|
 --------------------------------------------------------


-------------------
GIBBS FREE ENERGY
-------------------

The Gibbs free energy is G = H - T*S

Total enthalpy                    ...      0.45749173 Eh 
Total entropy correction          ...     -0.31922037 Eh   -200.31 kcal/mol
-----------------------------------------------------------------------
Final Gibbs free energy         ...      0.13827137 Eh

For completeness - the Gibbs free energy minus the electronic energy
G-E(el)                           ...      0.13827137 Eh     86.77 kcal/mol


The first frequency considered to be a vibration is 6
The total number of vibrations considered is 123


--------------------------
THERMOCHEMISTRY AT 773.00K
--------------------------

Temperature         ... 773.00 K
Pressure            ... 1.00 atm
Total Mass          ... 367.05 AMU

Throughout the following assumptions are being made:
  (1) The electronic state is orbitally nondegenerate
  (2) There are no thermally accessible electronically excited states
  (3) Hindered rotations indicated by low frequency modes are not
      treated as such but are treated as vibrations and this may
      cause some error
  (4) All equations used are the standard statistical mechanics
      equations for an ideal gas
  (5) All vibrations are strictly harmonic

freq.      22.47  E(vib)   ...       1.50 
freq.      22.89  E(vib)   ...       1.50 
freq.      31.55  E(vib)   ...       1.49 
freq.      48.40  E(vib)   ...       1.47 
freq.      48.47  E(vib)   ...       1.47 
freq.      50.75  E(vib)   ...       1.46 
freq.      84.74  E(vib)   ...       1.42 
freq.      84.99  E(vib)   ...       1.42 
freq.      85.45  E(vib)   ...       1.42 
freq.      99.28  E(vib)   ...       1.40 
freq.      99.56  E(vib)   ...       1.40 
freq.     100.84  E(vib)   ...       1.40 
freq.     163.41  E(vib)   ...       1.31 
freq.     164.18  E(vib)   ...       1.31 
freq.     164.30  E(vib)   ...       1.31 
freq.     166.01  E(vib)   ...       1.31 
freq.     166.72  E(vib)   ...       1.31 
freq.     170.95  E(vib)   ...       1.30 
freq.     180.75  E(vib)   ...       1.29 
freq.     200.53  E(vib)   ...       1.27 
freq.     201.14  E(vib)   ...       1.27 
freq.     227.98  E(vib)   ...       1.23 
freq.     231.23  E(vib)   ...       1.23 
freq.     232.12  E(vib)   ...       1.23 
freq.     262.47  E(vib)   ...       1.19 
freq.     263.02  E(vib)   ...       1.19 
freq.     263.19  E(vib)   ...       1.19 
freq.     284.72  E(vib)   ...       1.16 
freq.     290.44  E(vib)   ...       1.16 
freq.     291.31  E(vib)   ...       1.16 
freq.     416.49  E(vib)   ...       1.02 
freq.     416.65  E(vib)   ...       1.02 
freq.     429.12  E(vib)   ...       1.00 
freq.     449.25  E(vib)   ...       0.98 
freq.     449.58  E(vib)   ...       0.98 
freq.     451.17  E(vib)   ...       0.98 
freq.     570.92  E(vib)   ...       0.86 
freq.     571.22  E(vib)   ...       0.86 
freq.     572.79  E(vib)   ...       0.86 
freq.     574.48  E(vib)   ...       0.86 
freq.     574.65  E(vib)   ...       0.86 
freq.     579.99  E(vib)   ...       0.85 
freq.     677.38  E(vib)   ...       0.77 
freq.     678.72  E(vib)   ...       0.76 
freq.     679.40  E(vib)   ...       0.76 
freq.     679.83  E(vib)   ...       0.76 
freq.     680.22  E(vib)   ...       0.76 
freq.     681.15  E(vib)   ...       0.76 
freq.     796.90  E(vib)   ...       0.67 
freq.     797.34  E(vib)   ...       0.67 
freq.     797.55  E(vib)   ...       0.67 
freq.     955.45  E(vib)   ...       0.56 
freq.     955.49  E(vib)   ...       0.56 
freq.     959.35  E(vib)   ...       0.55 
freq.     959.93  E(vib)   ...       0.55 
freq.     960.07  E(vib)   ...       0.55 
freq.     960.74  E(vib)   ...       0.55 
freq.    1025.41  E(vib)   ...       0.51 
freq.    1025.52  E(vib)   ...       0.51 
freq.    1026.13  E(vib)   ...       0.51 
freq.    1036.13  E(vib)   ...       0.50 
freq.    1036.93  E(vib)   ...       0.50 
freq.    1036.95  E(vib)   ...       0.50 
freq.    1041.94  E(vib)   ...       0.50 
freq.    1042.10  E(vib)   ...       0.50 
freq.    1044.52  E(vib)   ...       0.50 
freq.    1044.58  E(vib)   ...       0.50 
freq.    1044.83  E(vib)   ...       0.50 
freq.    1046.37  E(vib)   ...       0.50 
freq.    1210.88  E(vib)   ...       0.41 
freq.    1211.07  E(vib)   ...       0.41 
freq.    1212.34  E(vib)   ...       0.41 
freq.    1301.23  E(vib)   ...       0.36 
freq.    1301.37  E(vib)   ...       0.36 
freq.    1306.32  E(vib)   ...       0.36 
freq.    1373.30  E(vib)   ...       0.33 
freq.    1373.55  E(vib)   ...       0.33 
freq.    1373.61  E(vib)   ...       0.33 
freq.    1379.81  E(vib)   ...       0.33 
freq.    1379.85  E(vib)   ...       0.33 
freq.    1380.16  E(vib)   ...       0.33 
freq.    1432.66  E(vib)   ...       0.31 
freq.    1432.75  E(vib)   ...       0.31 
freq.    1438.10  E(vib)   ...       0.30 
freq.    1441.55  E(vib)   ...       0.30 
freq.    1441.75  E(vib)   ...       0.30 
freq.    1441.98  E(vib)   ...       0.30 
freq.    1442.55  E(vib)   ...       0.30 
freq.    1442.59  E(vib)   ...       0.30 
freq.    1442.95  E(vib)   ...       0.30 
freq.    1453.42  E(vib)   ...       0.30 
freq.    1453.48  E(vib)   ...       0.30 
freq.    1454.32  E(vib)   ...       0.30 
freq.    1496.96  E(vib)   ...       0.28 
freq.    1497.18  E(vib)   ...       0.28 
freq.    1527.02  E(vib)   ...       0.27 
freq.    1573.29  E(vib)   ...       0.25 
freq.    1573.31  E(vib)   ...       0.25 
freq.    1576.47  E(vib)   ...       0.25 
freq.    1650.32  E(vib)   ...       0.23 
freq.    1650.48  E(vib)   ...       0.23 
freq.    1685.64  E(vib)   ...       0.22 
freq.    3036.18  E(vib)   ...       0.03 
freq.    3036.37  E(vib)   ...       0.03 
freq.    3036.78  E(vib)   ...       0.03 
freq.    3036.85  E(vib)   ...       0.03 
freq.    3036.90  E(vib)   ...       0.03 
freq.    3037.01  E(vib)   ...       0.03 
freq.    3110.70  E(vib)   ...       0.03 
freq.    3110.98  E(vib)   ...       0.03 
freq.    3111.09  E(vib)   ...       0.03 
freq.    3111.31  E(vib)   ...       0.03 
freq.    3111.45  E(vib)   ...       0.03 
freq.    3111.66  E(vib)   ...       0.03 
freq.    3148.17  E(vib)   ...       0.03 
freq.    3148.41  E(vib)   ...       0.03 
freq.    3148.57  E(vib)   ...       0.03 
freq.    3148.64  E(vib)   ...       0.03 
freq.    3149.19  E(vib)   ...       0.03 
freq.    3149.48  E(vib)   ...       0.03 
freq.    3209.56  E(vib)   ...       0.02 
freq.    3210.63  E(vib)   ...       0.02 
freq.    3211.11  E(vib)   ...       0.02 

------------
INNER ENERGY
------------

The inner energy is: U= E(el) + E(ZPE) + E(vib) + E(rot) + E(trans)
    E(el)   - is the total energy from the electronic structure calculation
              = E(kin-el) + E(nuc-el) + E(el-el) + E(nuc-nuc)
    E(ZPE)  - the the zero temperature vibrational energy from the frequency calculation
    E(vib)  - the the finite temperature correction to E(ZPE) due to population
              of excited vibrational states
    E(rot)  - is the rotational thermal energy
    E(trans)- is the translational thermal energy

Summary of contributions to the inner energy U:
Electronic energy                ...      0.00000000 Eh
Zero point energy                ...      0.33761163 Eh     211.85 kcal/mol
Thermal vibrational correction   ...      0.12367181 Eh      77.61 kcal/mol
Thermal rotational correction    ...      0.00367190 Eh       2.30 kcal/mol
Thermal translational correction ...      0.00367190 Eh       2.30 kcal/mol
-----------------------------------------------------------------------
Total thermal energy                      0.46862725 Eh


Summary of corrections to the electronic energy:
(perhaps to be used in another calculation)
Total thermal correction                  0.13101562 Eh      82.21 kcal/mol
Non-thermal (ZPE) correction              0.33761163 Eh     211.85 kcal/mol
-----------------------------------------------------------------------
Total correction                          0.46862725 Eh     294.07 kcal/mol


--------
ENTHALPY
--------

The enthalpy is H = U + kB*T
                kB is Boltzmann's constant
Total free energy                 ...      0.46862725 Eh 
Thermal Enthalpy correction       ...      0.00244801 Eh       1.54 kcal/mol
-----------------------------------------------------------------------
Total Enthalpy                    ...      0.47107526 Eh


Note: Only C1 symmetry has been detected, increase convergence thresholds 
      if your molecule has a higher symmetry. Symmetry factor of 1.0 is   
      used for the rotational entropy correction. 
 

Note: Rotational entropy computed according to Herzberg 
Infrared and Raman Spectra, Chapter V,1, Van Nostrand Reinhold, 1945 
Point Group:  C1, Symmetry Number:   1  
Rotational constants in cm-1:     0.008852     0.008833     0.006548 

Vibrational entropy computed according to the QRRHO of S. Grimme
Chem.Eur.J. 2012 18 9955


-------
ENTROPY
-------

The entropy contributions are T*S = T*(S(el)+S(vib)+S(rot)+S(trans))
     S(el)   - electronic entropy
     S(vib)  - vibrational entropy
     S(rot)  - rotational entropy
     S(trans)- translational entropy
The entropies will be listed as mutliplied by the temperature to get
units of energy

Electronic entropy                ...      0.00000000 Eh      0.00 kcal/mol
Vibrational entropy               ...      0.24907016 Eh    156.29 kcal/mol
Rotational entropy                ...      0.04588556 Eh     28.79 kcal/mol
Translational entropy             ...      0.05953152 Eh     37.36 kcal/mol
-----------------------------------------------------------------------
Final entropy term                ...      0.35448724 Eh    222.44 kcal/mol

In case the symmetry of your molecule has not been determined correctly
or in case you have a reason to use a different symmetry number we print 
out the resulting rotational entropy values for sn=1,12 :
 --------------------------------------------------------
|  sn= 1 | S(rot)=       0.04588556 Eh     28.79 kcal/mol|
|  sn= 2 | S(rot)=       0.04418878 Eh     27.73 kcal/mol|
|  sn= 3 | S(rot)=       0.04319622 Eh     27.11 kcal/mol|
|  sn= 4 | S(rot)=       0.04249200 Eh     26.66 kcal/mol|
|  sn= 5 | S(rot)=       0.04194576 Eh     26.32 kcal/mol|
|  sn= 6 | S(rot)=       0.04149944 Eh     26.04 kcal/mol|
|  sn= 7 | S(rot)=       0.04112209 Eh     25.80 kcal/mol|
|  sn= 8 | S(rot)=       0.04079522 Eh     25.60 kcal/mol|
|  sn= 9 | S(rot)=       0.04050689 Eh     25.42 kcal/mol|
|  sn=10 | S(rot)=       0.04024898 Eh     25.26 kcal/mol|
|  sn=11 | S(rot)=       0.04001566 Eh     25.11 kcal/mol|
|  sn=12 | S(rot)=       0.03980266 Eh     24.98 kcal/mol|
 --------------------------------------------------------


-------------------
GIBBS FREE ENERGY
-------------------

The Gibbs free energy is G = H - T*S

Total enthalpy                    ...      0.47107526 Eh 
Total entropy correction          ...     -0.35448724 Eh   -222.44 kcal/mol
-----------------------------------------------------------------------
Final Gibbs free energy         ...      0.11658802 Eh

For completeness - the Gibbs free energy minus the electronic energy
G-E(el)                           ...      0.11658802 Eh     73.16 kcal/mol


Timings for individual modules:

Sum of individual times         ...        0.000 sec (=   0.000 min)
                             ****ORCA TERMINATED NORMALLY****
TOTAL RUN TIME: 0 days 0 hours 0 minutes 6 seconds 448 msec
